 Entering Gaussian System, Link 0=g09
 Initial command:
 /home/../opt/exp_soft/g09/l1.exe /scratch/crrlen001/4-methylimidazole/opt/223280/Gau-160645.inp -scrdir=/scratch/crrlen001/4-methylimidazole/opt/223280/
 Entering Link 1 = /home/../opt/exp_soft/g09/l1.exe PID=    160646.
  
 Copyright (c) 1988,1990,1992,1993,1995,1998,2003,2009,2011,
            Gaussian, Inc.  All Rights Reserved.
  
 This is part of the Gaussian(R) 09 program.  It is based on
 the Gaussian(R) 03 system (copyright 2003, Gaussian, Inc.),
 the Gaussian(R) 98 system (copyright 1998, Gaussian, Inc.),
 the Gaussian(R) 94 system (copyright 1995, Gaussian, Inc.),
 the Gaussian 92(TM) system (copyright 1992, Gaussian, Inc.),
 the Gaussian 90(TM) system (copyright 1990, Gaussian, Inc.),
 the Gaussian 88(TM) system (copyright 1988, Gaussian, Inc.),
 the Gaussian 86(TM) system (copyright 1986, Carnegie Mellon
 University), and the Gaussian 82(TM) system (copyright 1983,
 Carnegie Mellon University). Gaussian is a federally registered
 trademark of Gaussian, Inc.
  
 This software contains proprietary and confidential information,
 including trade secrets, belonging to Gaussian, Inc.
  
 This software is provided under written license and may be
 used, copied, transmitted, or stored only in accord with that
 written license.
  
 The following legend is applicable only to US Government
 contracts under FAR:
  
                    RESTRICTED RIGHTS LEGEND
  
 Use, reproduction and disclosure by the US Government is
 subject to restrictions as set forth in subparagraphs (a)
 and (c) of the Commercial Computer Software - Restricted
 Rights clause in FAR 52.227-19.
  
 Gaussian, Inc.
 340 Quinnipiac St., Bldg. 40, Wallingford CT 06492
  
  
 ---------------------------------------------------------------
 Warning -- This program may not be used in any manner that
 competes with the business of Gaussian, Inc. or will provide
 assistance to any competitor of Gaussian, Inc.  The licensee
 of this program is prohibited from giving any competitor of
 Gaussian, Inc. access to this program.  By using this program,
 the user acknowledges that Gaussian, Inc. is engaged in the
 business of creating and licensing software in the field of
 computational chemistry and represents and warrants to the
 licensee that it is not a competitor of Gaussian, Inc. and that
 it will not use this program in any manner prohibited above.
 ---------------------------------------------------------------
  

 Cite this work as:
 Gaussian 09, Revision C.01,
 M. J. Frisch, G. W. Trucks, H. B. Schlegel, G. E. Scuseria, 
 M. A. Robb, J. R. Cheeseman, G. Scalmani, V. Barone, B. Mennucci, 
 G. A. Petersson, H. Nakatsuji, M. Caricato, X. Li, H. P. Hratchian, 
 A. F. Izmaylov, J. Bloino, G. Zheng, J. L. Sonnenberg, M. Hada, 
 M. Ehara, K. Toyota, R. Fukuda, J. Hasegawa, M. Ishida, T. Nakajima, 
 Y. Honda, O. Kitao, H. Nakai, T. Vreven, J. A. Montgomery, Jr., 
 J. E. Peralta, F. Ogliaro, M. Bearpark, J. J. Heyd, E. Brothers, 
 K. N. Kudin, V. N. Staroverov, T. Keith, R. Kobayashi, J. Normand, 
 K. Raghavachari, A. Rendell, J. C. Burant, S. S. Iyengar, J. Tomasi, 
 M. Cossi, N. Rega, J. M. Millam, M. Klene, J. E. Knox, J. B. Cross, 
 V. Bakken, C. Adamo, J. Jaramillo, R. Gomperts, R. E. Stratmann, 
 O. Yazyev, A. J. Austin, R. Cammi, C. Pomelli, J. W. Ochterski, 
 R. L. Martin, K. Morokuma, V. G. Zakrzewski, G. A. Voth, 
 P. Salvador, J. J. Dannenberg, S. Dapprich, A. D. Daniels, 
 O. Farkas, J. B. Foresman, J. V. Ortiz, J. Cioslowski, 
 and D. J. Fox, Gaussian, Inc., Wallingford CT, 2010.
 
 ******************************************
 Gaussian 09:  EM64L-G09RevC.01 23-Sep-2011
                16-Jul-2019 
 ******************************************
 %nprocs=40
 Will use up to   40 processors via shared memory.
 %mem=10GB
 %chk=4-methylimidazole.chk
 ---------------------------------------------
 # B3LYP/6-31G(d) opt=tight scf=tight pop=full
 ---------------------------------------------
 1/7=10,14=-1,18=20,19=15,26=3,38=1/1,3;
 2/9=110,12=2,17=6,18=5,40=1/2;
 3/5=1,6=6,7=1,11=2,16=1,25=1,30=1,71=1,74=-5/1,2,3;
 4//1;
 5/5=2,32=2,38=5/2;
 6/7=3,28=1/1;
 7//1,2,3,16;
 1/7=10,14=-1,18=20,19=15/3(2);
 2/9=110/2;
 99//99;
 2/9=110/2;
 3/5=1,6=6,7=1,11=2,16=1,25=1,30=1,71=1,74=-5/1,2,3;
 4/5=5,16=3/1;
 5/5=2,32=2,38=5/2;
 7//1,2,3,16;
 1/7=10,14=-1,18=20,19=15/3(-5);
 2/9=110/2;
 6/7=3,19=2,28=1/1;
 99/9=1/99;
 --------------------------------------
 4-methylimidazole Geometry Optimisation
 --------------------------------------
 Charge =  0 Multiplicity = 1
 Symbolic Z-Matrix:
 C                    -4.39056   1.60709   0. 
 C                    -2.59202   1.57177   0. 
 N                    -5.62485   3.40845   0. 
 H                    -4.88066   0.6989    0. 
 C                    -3.72051   4.99789   0. 
 N                    -1.81617   4.07955   0. 
 H                    -3.84722   6.02208   0. 
 C                    -1.25193  -0.12362   0. 
 H                    -1.82219  -1.029     0. 
 H                    -0.63504  -0.09065   0.87365 
 H                    -0.63504  -0.09065  -0.87365 
 H                    -0.91355   4.47262   0. 
 

 GradGradGradGradGradGradGradGradGradGradGradGradGradGradGradGradGradGrad
 Berny optimization.
 Initialization pass.
                           ----------------------------
                           !    Initial Parameters    !
                           ! (Angstroms and Degrees)  !
 --------------------------                            --------------------------
 ! Name  Definition              Value          Derivative Info.                !
 --------------------------------------------------------------------------------
 ! R1    R(1,2)                  1.7989         estimate D2E/DX2                !
 ! R2    R(1,3)                  2.1837         estimate D2E/DX2                !
 ! R3    R(1,4)                  1.032          estimate D2E/DX2                !
 ! R4    R(2,6)                  2.6251         estimate D2E/DX2                !
 ! R5    R(2,8)                  2.1611         estimate D2E/DX2                !
 ! R6    R(2,9)                  2.7123         estimate D2E/DX2                !
 ! R7    R(2,10)                 2.7123         estimate D2E/DX2                !
 ! R8    R(2,11)                 2.7123         estimate D2E/DX2                !
 ! R9    R(3,4)                  2.8099         estimate D2E/DX2                !
 ! R10   R(3,5)                  2.4805         estimate D2E/DX2                !
 ! R11   R(3,7)                  3.1609         estimate D2E/DX2                !
 ! R12   R(5,6)                  2.1142         estimate D2E/DX2                !
 ! R13   R(5,7)                  1.032          estimate D2E/DX2                !
 ! R14   R(6,12)                 0.9845         estimate D2E/DX2                !
 ! R15   R(8,9)                  1.07           estimate D2E/DX2                !
 ! R16   R(8,10)                 1.07           estimate D2E/DX2                !
 ! R17   R(8,11)                 1.07           estimate D2E/DX2                !
 ! A1    A(2,1,3)              125.5439         estimate D2E/DX2                !
 ! A2    A(2,1,4)              117.2282         estimate D2E/DX2                !
 ! A3    A(1,2,6)              106.0658         estimate D2E/DX2                !
 ! A4    A(1,2,8)              129.449          estimate D2E/DX2                !
 ! A5    A(1,2,9)              107.6138         estimate D2E/DX2                !
 ! A6    A(1,2,10)             137.1731         estimate D2E/DX2                !
 ! A7    A(1,2,11)             137.1731         estimate D2E/DX2                !
 ! A8    A(6,2,8)              124.4852         estimate D2E/DX2                !
 ! A9    A(6,2,9)              146.3203         estimate D2E/DX2                !
 ! A10   A(6,2,10)             111.8566         estimate D2E/DX2                !
 ! A11   A(6,2,11)             111.8566         estimate D2E/DX2                !
 ! A12   A(9,2,10)              37.5807         estimate D2E/DX2                !
 ! A13   A(9,2,11)              37.5807         estimate D2E/DX2                !
 ! A14   A(10,2,11)             37.5805         estimate D2E/DX2                !
 ! A15   A(1,3,5)               95.4309         estimate D2E/DX2                !
 ! A16   A(1,3,7)              111.36           estimate D2E/DX2                !
 ! A17   A(4,3,5)              114.4919         estimate D2E/DX2                !
 ! A18   A(4,3,7)              130.421          estimate D2E/DX2                !
 ! A19   A(3,5,6)              114.4052         estimate D2E/DX2                !
 ! A20   A(6,5,7)              122.7976         estimate D2E/DX2                !
 ! A21   A(2,6,5)               98.5541         estimate D2E/DX2                !
 ! A22   A(2,6,12)             130.7229         estimate D2E/DX2                !
 ! A23   A(5,6,12)             130.723          estimate D2E/DX2                !
 ! A24   A(9,8,10)             109.4713         estimate D2E/DX2                !
 ! A25   A(9,8,11)             109.4713         estimate D2E/DX2                !
 ! A26   A(10,8,11)            109.4706         estimate D2E/DX2                !
 ! D1    D(3,1,2,6)              0.0            estimate D2E/DX2                !
 ! D2    D(3,1,2,8)            180.0            estimate D2E/DX2                !
 ! D3    D(3,1,2,9)            180.0            estimate D2E/DX2                !
 ! D4    D(3,1,2,10)           151.7167         estimate D2E/DX2                !
 ! D5    D(3,1,2,11)          -151.7167         estimate D2E/DX2                !
 ! D6    D(4,1,2,6)            180.0            estimate D2E/DX2                !
 ! D7    D(4,1,2,8)              0.0            estimate D2E/DX2                !
 ! D8    D(4,1,2,9)              0.0            estimate D2E/DX2                !
 ! D9    D(4,1,2,10)           -28.2833         estimate D2E/DX2                !
 ! D10   D(4,1,2,11)            28.2833         estimate D2E/DX2                !
 ! D11   D(2,1,3,5)              0.0            estimate D2E/DX2                !
 ! D12   D(2,1,3,7)              0.0            estimate D2E/DX2                !
 ! D13   D(1,2,6,5)              0.0            estimate D2E/DX2                !
 ! D14   D(1,2,6,12)           180.0            estimate D2E/DX2                !
 ! D15   D(8,2,6,5)            180.0            estimate D2E/DX2                !
 ! D16   D(8,2,6,12)             0.0            estimate D2E/DX2                !
 ! D17   D(9,2,6,5)            180.0            estimate D2E/DX2                !
 ! D18   D(9,2,6,12)             0.0            estimate D2E/DX2                !
 ! D19   D(10,2,6,5)          -159.693          estimate D2E/DX2                !
 ! D20   D(10,2,6,12)           20.307          estimate D2E/DX2                !
 ! D21   D(11,2,6,5)           159.693          estimate D2E/DX2                !
 ! D22   D(11,2,6,12)          -20.307          estimate D2E/DX2                !
 ! D23   D(1,3,5,6)              0.0            estimate D2E/DX2                !
 ! D24   D(4,3,5,6)              0.0            estimate D2E/DX2                !
 ! D25   D(3,5,6,2)              0.0            estimate D2E/DX2                !
 ! D26   D(3,5,6,12)           180.0            estimate D2E/DX2                !
 ! D27   D(7,5,6,2)            180.0            estimate D2E/DX2                !
 ! D28   D(7,5,6,12)             0.0            estimate D2E/DX2                !
 ! D29   D(2,8,9,10)          -120.0003         estimate D2E/DX2                !
 ! D30   D(2,8,9,11)           120.0003         estimate D2E/DX2                !
 ! D31   D(2,8,10,11)         -120.0002         estimate D2E/DX2                !
 --------------------------------------------------------------------------------
 Trust Radius=3.00D-01 FncErr=1.00D-07 GrdErr=1.00D-06
 Number of steps in this run=     84 maximum allowed number of steps=    100.
 GradGradGradGradGradGradGradGradGradGradGradGradGradGradGradGradGradGrad

                          Input orientation:                          
 ---------------------------------------------------------------------
 Center     Atomic      Atomic             Coordinates (Angstroms)
 Number     Number       Type             X           Y           Z
 ---------------------------------------------------------------------
      1          6           0       -4.390560    1.607090    0.000000
      2          6           0       -2.592020    1.571770    0.000000
      3          7           0       -5.624850    3.408450    0.000000
      4          1           0       -4.880660    0.698900    0.000000
      5          6           0       -3.720510    4.997890    0.000000
      6          7           0       -1.816170    4.079550    0.000000
      7          1           0       -3.847220    6.022080    0.000000
      8          6           0       -1.251930   -0.123620    0.000000
      9          1           0       -1.822190   -1.029000    0.000000
     10          1           0       -0.635040   -0.090650    0.873650
     11          1           0       -0.635040   -0.090650   -0.873650
     12          1           0       -0.913550    4.472620    0.000000
 ---------------------------------------------------------------------
                    Distance matrix (angstroms):
                    1          2          3          4          5
     1  C    0.000000
     2  C    1.798887   0.000000
     3  N    2.183660   3.545624   0.000000
     4  H    1.031992   2.449444   2.809890   0.000000
     5  C    3.456370   3.607186   2.480490   4.452781   0.000000
     6  N    3.569390   2.625053   3.867353   4.562882   2.114204
     7  H    4.448298   4.623936   3.160859   5.422568   1.031998
     8  C    3.584181   2.161062   5.621205   3.720782   5.685398
     9  H    3.680420   2.712313   5.843902   3.512816   6.318783
    10  H    4.213017   2.712319   6.156717   4.405899   6.014701
    11  H    4.213017   2.712319   6.156717   4.405899   6.014701
    12  H    4.505648   3.351446   4.829990   5.475301   2.855684
                    6          7          8          9         10
     6  N    0.000000
     7  H    2.810442   0.000000
     8  C    4.240873   6.671219   0.000000
     9  H    5.108554   7.336108   1.070004   0.000000
    10  H    4.421414   6.960376   1.070002   1.747309   0.000000
    11  H    4.421414   6.960376   1.070002   1.747309   1.747300
    12  H    0.984493   3.317717   4.608679   5.576150   4.654489
                   11         12
    11  H    0.000000
    12  H    4.654489   0.000000
 Stoichiometry    C4H6N2
 Framework group  CS[SG(C4H4N2),X(H2)]
 Deg. of freedom    20
 Full point group                 CS      NOp   2
 Largest Abelian subgroup         CS      NOp   2
 Largest concise Abelian subgroup CS      NOp   2
                         Standard orientation:                         
 ---------------------------------------------------------------------
 Center     Atomic      Atomic             Coordinates (Angstroms)
 Number     Number       Type             X           Y           Z
 ---------------------------------------------------------------------
      1          6           0        1.564780    0.186723    0.000000
      2          6           0        0.000000    1.074112    0.000000
      3          7           0        1.792515   -1.985029    0.000000
      4          1           0        2.428174    0.752017    0.000000
      5          6           0       -0.638891   -2.476044    0.000000
      6          7           0       -1.876281   -0.761773    0.000000
      7          1           0       -1.015107   -3.437024    0.000000
      8          6           0       -0.371229    3.203050    0.000000
      9          1           0        0.561319    3.727706    0.000000
     10          1           0       -0.929406    3.467773    0.873650
     11          1           0       -0.929406    3.467773   -0.873650
     12          1           0       -2.857175   -0.677671    0.000000
 ---------------------------------------------------------------------
 Rotational constants (GHZ):      3.4368996      1.5397393      1.0702832
 Standard basis: 6-31G(d) (6D, 7F)
 There are    76 symmetry adapted basis functions of A'  symmetry.
 There are    26 symmetry adapted basis functions of A"  symmetry.
 Integral buffers will be    131072 words long.
 Raffenetti 2 integral format.
 Two-electron integral symmetry is turned on.
   102 basis functions,   192 primitive gaussians,   102 cartesian basis functions
    22 alpha electrons       22 beta electrons
       nuclear repulsion energy       151.6500973752 Hartrees.
 NAtoms=   12 NActive=   12 NUniq=   11 SFac= 1.19D+00 NAtFMM=   60 NAOKFM=F Big=F
 One-electron integrals computed using PRISM.
 NBasis=   102 RedAO= T  NBF=    76    26
 NBsUse=   102 1.00D-06 NBFU=    76    26
 Harris functional with IExCor=  402 diagonalized for initial guess.
 ExpMin= 1.61D-01 ExpMax= 4.17D+03 ExpMxC= 6.27D+02 IAcc=1 IRadAn=         1 AccDes= 0.00D+00
 HarFok:  IExCor=  402 AccDes= 0.00D+00 IRadAn=         1 IDoV= 1
 ScaDFX=  1.000000  1.000000  1.000000  1.000000
 FoFCou: FMM=F IPFlag=           0 FMFlag=      100000 FMFlg1=           0
         NFxFlg=           0 DoJE=T BraDBF=F KetDBF=T FulRan=T
         Omega=  0.000000  0.000000  1.000000  0.000000  0.000000 ICntrl=     500 IOpCl=  0
         NMat0=    1 NMatS0=    1 NMatT0=    0 NMatD0=    1 NMtDS0=    0 NMtDT0=    0
         I1Cent=           4 NGrid=           0.
 Petite list used in FoFCou.
 Initial guess orbital symmetries:
       Occupied  (A') (A') (A') (A') (A') (A') (A') (A') (A') (A')
                 (A') (A') (A') (A") (A') (A') (A') (A') (A') (A")
                 (A") (A')
       Virtual   (A") (A') (A") (A') (A") (A') (A') (A') (A') (A')
                 (A") (A') (A') (A') (A') (A") (A') (A") (A') (A')
                 (A") (A') (A') (A") (A') (A') (A") (A') (A") (A')
                 (A') (A') (A") (A') (A') (A') (A') (A') (A') (A')
                 (A') (A') (A') (A') (A") (A') (A') (A") (A') (A')
                 (A") (A") (A") (A') (A") (A') (A") (A") (A') (A")
                 (A") (A') (A') (A') (A") (A') (A') (A') (A") (A')
                 (A') (A') (A') (A') (A') (A') (A') (A') (A') (A')
 The electronic state of the initial guess is 1-A'.
 Requested convergence on RMS density matrix=1.00D-08 within 128 cycles.
 Requested convergence on MAX density matrix=1.00D-06.
 Requested convergence on             energy=1.00D-06.
 No special actions if energy rises.
 Keep R1 ints in memory in canonical form, NReq=14876659.
 Integral accuracy reduced to 1.0D-05 until final iterations.
 EnCoef did     2 forward-backward iterations
 EnCoef did   100 forward-backward iterations
 Problem detected with inexpensive integrals.
 Switching to full accuracy and repeating last cycle.
 EnCoef did   100 forward-backward iterations
 EnCoef did     6 forward-backward iterations
 EnCoef did     8 forward-backward iterations
 EnCoef did     8 forward-backward iterations
 EnCoef did     7 forward-backward iterations
 EnCoef did     5 forward-backward iterations
 SCF Done:  E(RB3LYP) =  -264.597936220     A.U. after   26 cycles
             Convg  =    0.9504D-08             -V/T =  2.0157

 **********************************************************************

            Population analysis using the SCF density.

 **********************************************************************

 Orbital symmetries:
       Occupied  (A') (A') (A') (A') (A') (A') (A') (A') (A') (A')
                 (A') (A') (A') (A") (A') (A') (A') (A') (A') (A")
                 (A") (A")
       Virtual   (A') (A") (A') (A') (A") (A') (A') (A') (A') (A')
                 (A') (A") (A') (A') (A') (A") (A') (A") (A') (A')
                 (A") (A') (A') (A") (A') (A') (A') (A") (A") (A')
                 (A') (A') (A') (A") (A') (A') (A') (A') (A') (A')
                 (A') (A') (A') (A') (A") (A') (A') (A") (A') (A")
                 (A') (A") (A") (A') (A') (A") (A") (A") (A') (A")
                 (A") (A') (A') (A') (A") (A') (A') (A') (A') (A')
                 (A") (A') (A') (A') (A') (A') (A') (A') (A') (A')
 The electronic state is 1-A'.
 Alpha  occ. eigenvalues --  -14.41830 -14.37115 -10.32725 -10.31540 -10.28141
 Alpha  occ. eigenvalues --  -10.26595  -0.77081  -0.73535  -0.69027  -0.65681
 Alpha  occ. eigenvalues --   -0.64215  -0.53060  -0.45330  -0.45050  -0.39735
 Alpha  occ. eigenvalues --   -0.35792  -0.29084  -0.27718  -0.25772  -0.24053
 Alpha  occ. eigenvalues --   -0.21779  -0.20144
 Alpha virt. eigenvalues --   -0.16025  -0.11522  -0.11148  -0.07921  -0.06142
 Alpha virt. eigenvalues --   -0.04197  -0.00017   0.09840   0.11568   0.13964
 Alpha virt. eigenvalues --    0.14965   0.14999   0.16782   0.18893   0.47154
 Alpha virt. eigenvalues --    0.47958   0.50118   0.53568   0.55573   0.56175
 Alpha virt. eigenvalues --    0.58221   0.60100   0.61778   0.63347   0.63395
 Alpha virt. eigenvalues --    0.69194   0.76026   0.76504   0.77861   0.79878
 Alpha virt. eigenvalues --    0.80618   0.85681   0.86008   0.86428   0.89078
 Alpha virt. eigenvalues --    0.89981   0.91366   0.94335   0.95831   0.96689
 Alpha virt. eigenvalues --    1.03400   1.09322   1.15632   1.21804   1.51376
 Alpha virt. eigenvalues --    1.56159   1.57317   1.60936   1.61738   1.62964
 Alpha virt. eigenvalues --    1.63624   1.65642   1.67194   1.69396   1.72918
 Alpha virt. eigenvalues --    1.74361   1.74678   1.77634   1.78105   1.81535
 Alpha virt. eigenvalues --    1.81749   1.82468   1.84984   1.90376   1.95477
 Alpha virt. eigenvalues --    2.08254   2.12060   2.15784   2.21739   2.22857
 Alpha virt. eigenvalues --    2.22970   2.25216   2.35281   2.45145   3.47196
 Alpha virt. eigenvalues --    3.60393   3.85304   3.97463   4.12442   4.13608
     Molecular Orbital Coefficients:
                           1         2         3         4         5
                           O         O         O         O         O
     Eigenvalues --   -14.41830 -14.37115 -10.32725 -10.31540 -10.28141
   1 1   C  1S          0.00000   0.00000   0.00064  -0.00003   0.99305
   2        2S          0.00001  -0.00002  -0.00007   0.00002   0.04685
   3        2PX         0.00000  -0.00001   0.00013   0.00003   0.00026
   4        2PY        -0.00001   0.00001  -0.00006   0.00004   0.00053
   5        2PZ         0.00000   0.00000   0.00000   0.00000   0.00000
   6        3S         -0.00009   0.00008   0.00241  -0.00006  -0.00997
   7        3PX        -0.00005  -0.00011  -0.00117  -0.00007   0.00008
   8        3PY         0.00010  -0.00005   0.00074  -0.00005  -0.00103
   9        3PZ         0.00000   0.00000   0.00000   0.00000   0.00000
  10        4XX         0.00000   0.00002  -0.00032  -0.00002  -0.00895
  11        4YY         0.00002  -0.00002  -0.00026  -0.00003  -0.00914
  12        4ZZ         0.00000   0.00000  -0.00024  -0.00002  -0.00905
  13        4XY        -0.00001   0.00000   0.00010  -0.00001   0.00032
  14        4XZ         0.00000   0.00000   0.00000   0.00000   0.00000
  15        4YZ         0.00000   0.00000   0.00000   0.00000   0.00000
  16 2   C  1S          0.00000   0.00002   0.99320   0.00014  -0.00085
  17        2S          0.00000   0.00011   0.04558   0.00001  -0.00011
  18        2PX         0.00000  -0.00004  -0.00019   0.00001  -0.00008
  19        2PY        -0.00001  -0.00007  -0.00023   0.00004   0.00005
  20        2PZ         0.00000   0.00000   0.00000   0.00000   0.00000
  21        3S         -0.00005  -0.00037  -0.00832   0.00003   0.00240
  22        3PX        -0.00003   0.00014  -0.00081  -0.00001   0.00120
  23        3PY         0.00002   0.00034   0.00037  -0.00007  -0.00058
  24        3PZ         0.00000   0.00000   0.00000   0.00000   0.00000
  25        4XX         0.00000   0.00002  -0.00894  -0.00001  -0.00032
  26        4YY         0.00001   0.00002  -0.00900  -0.00003  -0.00027
  27        4ZZ         0.00001   0.00008  -0.00869  -0.00002  -0.00020
  28        4XY         0.00000  -0.00004   0.00003   0.00000   0.00009
  29        4XZ         0.00000   0.00000   0.00000   0.00000   0.00000
  30        4YZ         0.00000   0.00000   0.00000   0.00000   0.00000
  31 3   N  1S          0.99307   0.00001   0.00000  -0.00005  -0.00006
  32        2S          0.03319  -0.00001   0.00002  -0.00013  -0.00016
  33        2PX        -0.00031   0.00001  -0.00002   0.00007   0.00001
  34        2PY         0.00041   0.00000  -0.00001   0.00002  -0.00001
  35        2PZ         0.00000   0.00000   0.00000   0.00000   0.00000
  36        3S          0.00291   0.00005   0.00001   0.00063   0.00094
  37        3PX         0.00004  -0.00004   0.00012  -0.00041  -0.00007
  38        3PY        -0.00009   0.00000   0.00001  -0.00012   0.00056
  39        3PZ         0.00000   0.00000   0.00000   0.00000   0.00000
  40        4XX        -0.00773   0.00000   0.00000  -0.00003  -0.00018
  41        4YY        -0.00769  -0.00002  -0.00001  -0.00015  -0.00004
  42        4ZZ        -0.00765  -0.00002   0.00000  -0.00016  -0.00016
  43        4XY         0.00000   0.00000   0.00004   0.00004  -0.00002
  44        4XZ         0.00000   0.00000   0.00000   0.00000   0.00000
  45        4YZ         0.00000   0.00000   0.00000   0.00000   0.00000
  46 4   H  1S          0.00002   0.00001  -0.00014   0.00000  -0.00054
  47        2S         -0.00002   0.00004   0.00006   0.00009   0.00262
  48 5   C  1S          0.00001   0.00002  -0.00014   0.99303   0.00002
  49        2S          0.00007   0.00003   0.00002   0.04648   0.00001
  50        2PX         0.00001   0.00003   0.00000  -0.00107  -0.00003
  51        2PY         0.00000   0.00002  -0.00004  -0.00090  -0.00007
  52        2PZ         0.00000   0.00000   0.00000   0.00000   0.00000
  53        3S         -0.00015  -0.00026  -0.00004  -0.00857  -0.00005
  54        3PX        -0.00012   0.00002   0.00005   0.00103   0.00005
  55        3PY         0.00000  -0.00034  -0.00004   0.00093   0.00031
  56        3PZ         0.00000   0.00000   0.00000   0.00000   0.00000
  57        4XX        -0.00003   0.00004   0.00001  -0.00927  -0.00004
  58        4YY         0.00001   0.00000  -0.00006  -0.00890  -0.00003
  59        4ZZ         0.00002   0.00003  -0.00001  -0.00921  -0.00002
  60        4XY        -0.00001   0.00001   0.00002   0.00030  -0.00003
  61        4XZ         0.00000   0.00000   0.00000   0.00000   0.00000
  62        4YZ         0.00000   0.00000   0.00000   0.00000   0.00000
  63 6   N  1S         -0.00002   0.99289  -0.00007  -0.00008   0.00001
  64        2S          0.00000   0.03376  -0.00016  -0.00018   0.00003
  65        2PX         0.00000  -0.00089  -0.00012   0.00002   0.00002
  66        2PY         0.00000  -0.00020  -0.00007   0.00003  -0.00001
  67        2PZ         0.00000   0.00000   0.00000   0.00000   0.00000
  68        3S         -0.00002   0.00349   0.00076   0.00125  -0.00013
  69        3PX         0.00002   0.00063   0.00060   0.00019  -0.00015
  70        3PY         0.00001   0.00001   0.00035  -0.00064   0.00005
  71        3PZ         0.00000   0.00000   0.00000   0.00000   0.00000
  72        4XX         0.00000  -0.00790  -0.00016  -0.00016   0.00001
  73        4YY         0.00000  -0.00799  -0.00012  -0.00010   0.00002
  74        4ZZ         0.00000  -0.00801  -0.00022  -0.00018   0.00002
  75        4XY         0.00000  -0.00002   0.00011  -0.00004   0.00000
  76        4XZ         0.00000   0.00000   0.00000   0.00000   0.00000
  77        4YZ         0.00000   0.00000   0.00000   0.00000   0.00000
  78 7   H  1S          0.00001   0.00000   0.00000  -0.00076   0.00002
  79        2S          0.00000  -0.00016   0.00002   0.00289   0.00023
  80 8   C  1S          0.00000   0.00000   0.00006   0.00000  -0.00007
  81        2S          0.00000   0.00002  -0.00020  -0.00001   0.00004
  82        2PX         0.00000   0.00001  -0.00005   0.00000   0.00003
  83        2PY         0.00000   0.00000   0.00005   0.00000   0.00002
  84        2PZ         0.00000   0.00000   0.00000   0.00000   0.00000
  85        3S          0.00000  -0.00010   0.00090   0.00005  -0.00012
  86        3PX         0.00000  -0.00008   0.00038   0.00001  -0.00026
  87        3PY         0.00001   0.00004  -0.00071  -0.00002  -0.00003
  88        3PZ         0.00000   0.00000   0.00000   0.00000   0.00000
  89        4XX         0.00000   0.00000  -0.00006  -0.00001  -0.00001
  90        4YY         0.00000   0.00000  -0.00001   0.00000  -0.00001
  91        4ZZ         0.00000   0.00001  -0.00010  -0.00001   0.00003
  92        4XY         0.00000   0.00001  -0.00003   0.00000   0.00003
  93        4XZ         0.00000   0.00000   0.00000   0.00000   0.00000
  94        4YZ         0.00000   0.00000   0.00000   0.00000   0.00000
  95 9   H  1S          0.00000   0.00002  -0.00012   0.00000   0.00003
  96        2S          0.00000   0.00004  -0.00006   0.00000   0.00017
  97 10  H  1S          0.00000   0.00000  -0.00009   0.00000  -0.00001
  98        2S          0.00000  -0.00001   0.00019   0.00000  -0.00004
  99 11  H  1S          0.00000   0.00000  -0.00009   0.00000  -0.00001
 100        2S          0.00000  -0.00001   0.00019   0.00000  -0.00004
 101 12  H  1S          0.00001   0.00025   0.00008  -0.00009  -0.00003
 102        2S          0.00001  -0.00015   0.00015  -0.00001  -0.00004
                           6         7         8         9        10
                           O         O         O         O         O
     Eigenvalues --   -10.26595  -0.77081  -0.73535  -0.69027  -0.65681
   1 1   C  1S          0.00008  -0.00464  -0.01827  -0.11421   0.10399
   2        2S          0.00003   0.00892   0.03696   0.23712  -0.21741
   3        2PX         0.00004  -0.00126  -0.00179   0.03625  -0.03254
   4        2PY         0.00008   0.00155   0.01231   0.02538  -0.07938
   5        2PZ         0.00000   0.00000   0.00000   0.00000   0.00000
   6        3S         -0.00007   0.00788   0.03090   0.21060  -0.19341
   7        3PX        -0.00043  -0.00323  -0.00155   0.01191  -0.00501
   8        3PY        -0.00054  -0.00092   0.00389   0.01068  -0.02561
   9        3PZ         0.00000   0.00000   0.00000   0.00000   0.00000
  10        4XX         0.00002   0.00029   0.00135   0.00412  -0.00624
  11        4YY        -0.00004  -0.00024   0.00010  -0.00024   0.00312
  12        4ZZ         0.00000  -0.00066  -0.00201  -0.01191   0.01102
  13        4XY         0.00001  -0.00011  -0.00041   0.00384  -0.00415
  14        4XZ         0.00000   0.00000   0.00000   0.00000   0.00000
  15        4YZ         0.00000   0.00000   0.00000   0.00000   0.00000
  16 2   C  1S         -0.00020  -0.00962  -0.03721  -0.04549   0.06172
  17        2S         -0.00036   0.01938   0.07696   0.09524  -0.13152
  18        2PX        -0.00002  -0.00569   0.00167   0.04313  -0.04765
  19        2PY        -0.00011  -0.00651   0.02703  -0.02335   0.02269
  20        2PZ         0.00000   0.00000   0.00000   0.00000   0.00000
  21        3S          0.00170   0.02014   0.06844   0.08437  -0.11895
  22        3PX        -0.00019  -0.00348   0.00051   0.01158  -0.01186
  23        3PY         0.00169  -0.00090   0.01113  -0.00570  -0.00122
  24        3PZ         0.00000   0.00000   0.00000   0.00000   0.00000
  25        4XX        -0.00016   0.00049  -0.00195   0.00297  -0.00314
  26        4YY         0.00011   0.00019   0.00206  -0.00223   0.00344
  27        4ZZ        -0.00018  -0.00096  -0.00407  -0.00463   0.00577
  28        4XY        -0.00004   0.00081  -0.00209  -0.00466   0.00442
  29        4XZ         0.00000   0.00000   0.00000   0.00000   0.00000
  30        4YZ         0.00000   0.00000   0.00000   0.00000   0.00000
  31 3   N  1S          0.00002  -0.00495  -0.00594  -0.17271  -0.05375
  32        2S          0.00005   0.01089   0.01306   0.38717   0.12196
  33        2PX        -0.00001  -0.00189  -0.00027  -0.00672  -0.01192
  34        2PY         0.00002   0.00048   0.00248   0.02648  -0.01715
  35        2PZ         0.00000   0.00000   0.00000   0.00000   0.00000
  36        3S         -0.00028   0.01153   0.01441   0.42652   0.13649
  37        3PX         0.00007  -0.00112  -0.00002  -0.00261  -0.00605
  38        3PY        -0.00015   0.00042   0.00157   0.01642  -0.00852
  39        3PZ         0.00000   0.00000   0.00000   0.00000   0.00000
  40        4XX         0.00004  -0.00002  -0.00031  -0.00602  -0.00012
  41        4YY         0.00001  -0.00022   0.00011  -0.00270  -0.00366
  42        4ZZ         0.00005  -0.00051  -0.00061  -0.01499  -0.00407
  43        4XY         0.00002   0.00001  -0.00003   0.00022   0.00075
  44        4XZ         0.00000   0.00000   0.00000   0.00000   0.00000
  45        4YZ         0.00000   0.00000   0.00000   0.00000   0.00000
  46 4   H  1S          0.00008   0.00326   0.01602   0.11082  -0.11961
  47        2S          0.00037   0.00283   0.00594   0.03279  -0.04358
  48 5   C  1S          0.00000  -0.03503   0.00062  -0.04476  -0.14734
  49        2S          0.00002   0.07353  -0.00144   0.09513   0.31850
  50        2PX        -0.00001  -0.02670   0.00154   0.00340  -0.05802
  51        2PY        -0.00002   0.00512   0.00008  -0.02894  -0.14172
  52        2PZ         0.00000   0.00000   0.00000   0.00000   0.00000
  53        3S         -0.00007   0.06283  -0.00060   0.08910   0.27723
  54        3PX         0.00007  -0.00792   0.00032   0.00173  -0.01665
  55        3PY         0.00003  -0.00183  -0.00003  -0.01108  -0.03625
  56        3PZ         0.00000   0.00000   0.00000   0.00000   0.00000
  57        4XX         0.00000  -0.00086   0.00002  -0.00192  -0.01053
  58        4YY        -0.00003   0.00167  -0.00003   0.00186   0.00899
  59        4ZZ         0.00000  -0.00343   0.00005  -0.00431  -0.01508
  60        4XY         0.00001  -0.00062   0.00007   0.00327   0.01139
  61        4XZ         0.00000   0.00000   0.00000   0.00000   0.00000
  62        4YZ         0.00000   0.00000   0.00000   0.00000   0.00000
  63 6   N  1S         -0.00001  -0.20115   0.00670   0.01429   0.01996
  64        2S         -0.00002   0.43731  -0.01493  -0.03237  -0.04504
  65        2PX        -0.00004  -0.14768   0.00710   0.02432   0.04016
  66        2PY         0.00002  -0.00085   0.00115  -0.00480  -0.02912
  67        2PZ         0.00000   0.00000   0.00000   0.00000   0.00000
  68        3S          0.00005   0.45125  -0.01481  -0.03251  -0.04906
  69        3PX         0.00022  -0.05626   0.00314   0.01168   0.01512
  70        3PY        -0.00004  -0.00632   0.00142  -0.00199  -0.01409
  71        3PZ         0.00000   0.00000   0.00000   0.00000   0.00000
  72        4XX        -0.00002   0.01715  -0.00076  -0.00210  -0.00385
  73        4YY        -0.00001  -0.01002   0.00039   0.00150   0.00387
  74        4ZZ        -0.00002  -0.01786   0.00050   0.00113   0.00187
  75        4XY         0.00002  -0.00423   0.00023   0.00002  -0.00087
  76        4XZ         0.00000   0.00000   0.00000   0.00000   0.00000
  77        4YZ         0.00000   0.00000   0.00000   0.00000   0.00000
  78 7   H  1S          0.00001   0.02739  -0.00075   0.04756   0.19633
  79        2S          0.00006   0.00449  -0.00045   0.01280   0.07506
  80 8   C  1S          0.99295  -0.00455  -0.19665   0.02124  -0.01706
  81        2S          0.04915   0.00922   0.38984  -0.04348   0.03480
  82        2PX         0.00008  -0.00005  -0.00818   0.00458  -0.00617
  83        2PY        -0.00021   0.00058   0.07053  -0.01792   0.02236
  84        2PZ         0.00000   0.00000   0.00000   0.00000   0.00000
  85        3S         -0.01442   0.00675   0.37261  -0.04065   0.03619
  86        3PX        -0.00004  -0.00090  -0.00211   0.00167  -0.00200
  87        3PY        -0.00002   0.00015   0.02508  -0.00833   0.00943
  88        3PZ         0.00000   0.00000   0.00000   0.00000   0.00000
  89        4XX        -0.00899   0.00007   0.00348  -0.00066   0.00057
  90        4YY        -0.00943  -0.00012  -0.00972   0.00208  -0.00234
  91        4ZZ        -0.00898   0.00010   0.00316  -0.00091   0.00091
  92        4XY         0.00009   0.00001   0.00265  -0.00075   0.00082
  93        4XZ         0.00000   0.00000   0.00000   0.00000   0.00000
  94        4YZ         0.00000   0.00000   0.00000   0.00000   0.00000
  95 9   H  1S         -0.00018   0.00325   0.15069  -0.01794   0.01559
  96        2S          0.00277   0.00164   0.03567  -0.00377   0.00270
  97 10  H  1S         -0.00017   0.00317   0.14672  -0.01872   0.01697
  98        2S          0.00273   0.00088   0.03302  -0.00513   0.00485
  99 11  H  1S         -0.00017   0.00317   0.14672  -0.01872   0.01697
 100        2S          0.00273   0.00088   0.03302  -0.00513   0.00485
 101 12  H  1S          0.00005   0.21151  -0.00834  -0.02297  -0.03738
 102        2S          0.00010   0.03116  -0.00112  -0.00449  -0.01036
                          11        12        13        14        15
                           O         O         O         O         O
     Eigenvalues --    -0.64215  -0.53060  -0.45330  -0.45050  -0.39735
   1 1   C  1S          0.08908   0.06618   0.00386   0.00000  -0.00752
   2        2S         -0.18639  -0.14796  -0.00920   0.00000   0.01454
   3        2PX        -0.02423  -0.24828  -0.01417   0.00000  -0.00129
   4        2PY        -0.09521  -0.03672   0.00247   0.00000  -0.02322
   5        2PZ         0.00000   0.00000   0.00000   0.00570   0.00000
   6        3S         -0.16679  -0.12267  -0.01002   0.00000   0.02402
   7        3PX         0.00101  -0.06893  -0.00661   0.00000  -0.01024
   8        3PY        -0.03080  -0.00239   0.00628   0.00000  -0.01673
   9        3PZ         0.00000   0.00000   0.00000   0.00396   0.00000
  10        4XX        -0.00664  -0.00020  -0.00068   0.00000  -0.00030
  11        4YY         0.00400   0.00350   0.00080   0.00000  -0.00205
  12        4ZZ         0.00961   0.00740   0.00019   0.00000  -0.00079
  13        4XY        -0.00418  -0.02202  -0.00122   0.00000   0.00184
  14        4XZ         0.00000   0.00000   0.00000  -0.00031   0.00000
  15        4YZ         0.00000   0.00000   0.00000   0.00047   0.00000
  16 2   C  1S          0.06233  -0.18006   0.00182   0.00000   0.01990
  17        2S         -0.13343   0.39296  -0.00353   0.00000  -0.04805
  18        2PX        -0.04882   0.00337   0.03012   0.00000  -0.01543
  19        2PY         0.01941   0.00336   0.00310   0.00000  -0.05869
  20        2PZ         0.00000   0.00000   0.00000   0.03141   0.00000
  21        3S         -0.12107   0.43522  -0.00790   0.00000  -0.04566
  22        3PX        -0.01165   0.00052   0.01499   0.00000  -0.01770
  23        3PY        -0.00337   0.01167   0.00148   0.00000  -0.03886
  24        3PZ         0.00000   0.00000   0.00000   0.01682   0.00000
  25        4XX        -0.00236  -0.01025  -0.00051   0.00000   0.00061
  26        4YY         0.00346  -0.00704   0.00103   0.00000   0.00126
  27        4ZZ         0.00579  -0.01488   0.00005   0.00000   0.00054
  28        4XY         0.00418  -0.00413   0.00314   0.00000   0.00236
  29        4XZ         0.00000   0.00000   0.00000  -0.00054   0.00000
  30        4YZ         0.00000   0.00000   0.00000   0.00320   0.00000
  31 3   N  1S         -0.13868  -0.01769  -0.00154   0.00000   0.01175
  32        2S          0.31534   0.04048   0.00297   0.00000  -0.03051
  33        2PX         0.00888  -0.00724  -0.00008   0.00000  -0.03374
  34        2PY        -0.00239  -0.02126  -0.00354   0.00000   0.01692
  35        2PZ         0.00000   0.00000   0.00000   0.00030   0.00000
  36        3S          0.35374   0.05232   0.00656   0.00000  -0.03273
  37        3PX         0.00564  -0.00480  -0.00012   0.00000  -0.02752
  38        3PY        -0.00030  -0.00965  -0.00028   0.00000   0.00993
  39        3PZ         0.00000   0.00000   0.00000   0.00002   0.00000
  40        4XX        -0.00473  -0.00002  -0.00027   0.00000   0.00180
  41        4YY        -0.00519  -0.00272  -0.00036   0.00000  -0.00046
  42        4ZZ        -0.01078  -0.00137  -0.00035   0.00000  -0.00048
  43        4XY         0.00024  -0.00085  -0.00003   0.00000  -0.00071
  44        4XZ         0.00000   0.00000   0.00000  -0.00001   0.00000
  45        4YZ         0.00000   0.00000   0.00000   0.00003   0.00000
  46 4   H  1S         -0.11026  -0.19166  -0.01064   0.00000   0.00005
  47        2S         -0.04349  -0.11706  -0.00199   0.00000   0.00452
  48 5   C  1S          0.11111   0.00060   0.00021   0.00000  -0.04399
  49        2S         -0.24158  -0.00294  -0.00013   0.00000   0.08109
  50        2PX         0.06812   0.00958   0.00009   0.00000   0.00585
  51        2PY         0.12277   0.01233  -0.00053   0.00000   0.29457
  52        2PZ         0.00000   0.00000   0.00000   0.00011   0.00000
  53        3S         -0.20436   0.00392  -0.00127   0.00000   0.20416
  54        3PX         0.02202   0.00419   0.00049   0.00000  -0.02142
  55        3PY         0.02674   0.00558  -0.00093   0.00000   0.10061
  56        3PZ         0.00000   0.00000   0.00000   0.00005   0.00000
  57        4XX         0.00980  -0.00001   0.00010   0.00000   0.00145
  58        4YY        -0.00850  -0.00047  -0.00003   0.00000  -0.01435
  59        4ZZ         0.01176   0.00004   0.00008   0.00000  -0.00044
  60        4XY        -0.00956  -0.00069   0.00006   0.00000  -0.01600
  61        4XZ         0.00000   0.00000   0.00000   0.00000   0.00000
  62        4YZ         0.00000   0.00000   0.00000   0.00001   0.00000
  63 6   N  1S         -0.01828   0.00140   0.00029   0.00000  -0.06104
  64        2S          0.04198  -0.00609  -0.00021   0.00000   0.11899
  65        2PX        -0.04641   0.04788  -0.00719   0.00000   0.38666
  66        2PY         0.01903   0.01790  -0.00289   0.00000  -0.11707
  67        2PZ         0.00000   0.00000   0.00000   0.00104   0.00000
  68        3S          0.04234   0.00745  -0.00229   0.00000   0.28025
  69        3PX        -0.01753   0.02225  -0.00261   0.00000   0.18470
  70        3PY         0.00681   0.01510  -0.00369   0.00000  -0.07075
  71        3PZ         0.00000   0.00000   0.00000   0.00113   0.00000
  72        4XX         0.00385  -0.00321   0.00056   0.00000  -0.02990
  73        4YY        -0.00361   0.00131  -0.00019   0.00000   0.00719
  74        4ZZ        -0.00171   0.00010   0.00005   0.00000  -0.00214
  75        4XY         0.00001   0.00093  -0.00001   0.00000  -0.00197
  76        4XZ         0.00000   0.00000   0.00000   0.00000   0.00000
  77        4YZ         0.00000   0.00000   0.00000   0.00007   0.00000
  78 7   H  1S         -0.16295  -0.00902   0.00005   0.00000  -0.14016
  79        2S         -0.06826  -0.00518   0.00009   0.00000  -0.14762
  80 8   C  1S         -0.01452   0.01605   0.00175   0.00000   0.00114
  81        2S          0.02968  -0.03827  -0.00403   0.00000  -0.00060
  82        2PX        -0.00656   0.01419   0.46465   0.00000  -0.00237
  83        2PY         0.02303  -0.10318   0.07955   0.00000   0.05039
  84        2PZ         0.00000   0.00000   0.00000   0.47376   0.00000
  85        3S          0.03139  -0.02518  -0.00606   0.00000  -0.00851
  86        3PX        -0.00313   0.00670   0.19042   0.00000  -0.00025
  87        3PY         0.00931  -0.05700   0.02920   0.00000   0.03391
  88        3PZ         0.00000   0.00000   0.00000   0.19563   0.00000
  89        4XX         0.00048  -0.00314   0.01251   0.00000   0.00112
  90        4YY        -0.00232   0.00756   0.00632   0.00000  -0.00174
  91        4ZZ         0.00090  -0.00305  -0.01883   0.00000   0.00073
  92        4XY         0.00079  -0.00236   0.02303   0.00000   0.00124
  93        4XZ         0.00000   0.00000   0.00000  -0.02411   0.00000
  94        4YZ         0.00000   0.00000   0.00000   0.01698   0.00000
  95 9   H  1S          0.01382  -0.03571   0.28033   0.00000   0.01386
  96        2S          0.00296  -0.01667   0.22048   0.00000   0.00775
  97 10  H  1S          0.01541  -0.03225  -0.14097   0.24243   0.00747
  98        2S          0.00455  -0.01352  -0.10724   0.18566   0.00453
  99 11  H  1S          0.01541  -0.03225  -0.14097  -0.24243   0.00747
 100        2S          0.00455  -0.01352  -0.10724  -0.18566   0.00453
 101 12  H  1S          0.03958  -0.02849   0.00436   0.00000  -0.20545
 102        2S          0.01257  -0.01362   0.00193   0.00000  -0.16596
                          16        17        18        19        20
                           O         O         O         O         O
     Eigenvalues --    -0.35792  -0.29084  -0.27718  -0.25772  -0.24053
   1 1   C  1S          0.06186   0.01724  -0.04297   0.00039   0.00000
   2        2S         -0.12973  -0.03320   0.08541  -0.00369   0.00000
   3        2PX         0.32253  -0.04856   0.01278   0.08460   0.00000
   4        2PY         0.10553   0.18646  -0.31350  -0.05322   0.00000
   5        2PZ         0.00000   0.00000   0.00000   0.00000   0.28101
   6        3S         -0.24270  -0.08167   0.19075  -0.00375   0.00000
   7        3PX         0.10674  -0.05648   0.04122   0.00516   0.00000
   8        3PY         0.03854   0.11618  -0.19027  -0.04966   0.00000
   9        3PZ         0.00000   0.00000   0.00000   0.00000   0.22960
  10        4XX         0.00538   0.00145  -0.01006   0.00291   0.00000
  11        4YY         0.00442   0.00419  -0.00278  -0.00483   0.00000
  12        4ZZ         0.00107   0.00005  -0.00003  -0.00082   0.00000
  13        4XY         0.01796   0.00128  -0.00316   0.00809   0.00000
  14        4XZ         0.00000   0.00000   0.00000   0.00000  -0.00183
  15        4YZ         0.00000   0.00000   0.00000   0.00000   0.00670
  16 2   C  1S         -0.03390   0.00465   0.01416  -0.01047   0.00000
  17        2S          0.06889  -0.00238  -0.03623   0.02015   0.00000
  18        2PX        -0.20792   0.15631  -0.09273  -0.17933   0.00000
  19        2PY         0.26420   0.04981   0.14337  -0.09104   0.00000
  20        2PZ         0.00000   0.00000   0.00000   0.00000   0.28260
  21        3S          0.11977  -0.05528  -0.03590   0.05328   0.00000
  22        3PX        -0.09399   0.09288  -0.02430  -0.12850   0.00000
  23        3PY         0.12265   0.04398   0.04762  -0.05040   0.00000
  24        3PZ         0.00000   0.00000   0.00000   0.00000   0.20502
  25        4XX        -0.01095   0.00389  -0.00752  -0.00294   0.00000
  26        4YY         0.00248  -0.00063   0.01138  -0.00329   0.00000
  27        4ZZ        -0.00214   0.00118   0.00085  -0.00078   0.00000
  28        4XY         0.00994  -0.00279  -0.00492   0.00556   0.00000
  29        4XZ         0.00000   0.00000   0.00000   0.00000   0.00643
  30        4YZ         0.00000   0.00000   0.00000   0.00000  -0.00419
  31 3   N  1S         -0.01674   0.00006   0.03524   0.02173   0.00000
  32        2S          0.04003  -0.00605  -0.08542  -0.05007   0.00000
  33        2PX         0.03396  -0.15579  -0.10051  -0.22362   0.00000
  34        2PY        -0.08458  -0.19849   0.32950  -0.00832   0.00000
  35        2PZ         0.00000   0.00000   0.00000   0.00000   0.29828
  36        3S          0.05764   0.01730  -0.13459  -0.08856   0.00000
  37        3PX         0.02341  -0.11379  -0.07344  -0.14886   0.00000
  38        3PY        -0.05287  -0.12714   0.21551  -0.01384   0.00000
  39        3PZ         0.00000   0.00000   0.00000   0.00000   0.21235
  40        4XX         0.00008   0.00570   0.00106   0.00687   0.00000
  41        4YY        -0.00576  -0.01004   0.01343   0.00212   0.00000
  42        4ZZ        -0.00070  -0.00164   0.00049   0.00204   0.00000
  43        4XY         0.00311   0.00132  -0.00215   0.00122   0.00000
  44        4XZ         0.00000   0.00000   0.00000   0.00000  -0.00179
  45        4YZ         0.00000   0.00000   0.00000   0.00000   0.00394
  46 4   H  1S          0.15807   0.02572  -0.07305   0.03886   0.00000
  47        2S          0.18063   0.03845  -0.09337   0.05884   0.00000
  48 5   C  1S         -0.00306  -0.07770  -0.03934  -0.03082   0.00000
  49        2S          0.00483   0.16129   0.08502   0.06642   0.00000
  50        2PX        -0.00720   0.20054   0.05147   0.32270   0.00000
  51        2PY         0.02570   0.24326   0.12358  -0.04008   0.00000
  52        2PZ         0.00000   0.00000   0.00000   0.00000   0.17132
  53        3S          0.01983   0.35395   0.16487   0.12954   0.00000
  54        3PX        -0.00894   0.10761   0.01479   0.23551   0.00000
  55        3PY        -0.00074   0.04516   0.05435  -0.02948   0.00000
  56        3PZ         0.00000   0.00000   0.00000   0.00000   0.15162
  57        4XX         0.00057  -0.00277  -0.00187  -0.01234   0.00000
  58        4YY        -0.00131  -0.02298  -0.01067  -0.00104   0.00000
  59        4ZZ        -0.00021   0.00117   0.00062   0.00126   0.00000
  60        4XY        -0.00260  -0.01251  -0.00267  -0.00274   0.00000
  61        4XZ         0.00000   0.00000   0.00000   0.00000  -0.00350
  62        4YZ         0.00000   0.00000   0.00000   0.00000  -0.00211
  63 6   N  1S         -0.01290   0.04786   0.03369  -0.00437   0.00000
  64        2S          0.02398  -0.10244  -0.07006   0.00699   0.00000
  65        2PX         0.07352  -0.21181  -0.13360   0.03010   0.00000
  66        2PY        -0.00195  -0.14274  -0.09280   0.35585   0.00000
  67        2PZ         0.00000   0.00000   0.00000   0.00000   0.26115
  68        3S          0.06528  -0.22470  -0.16575   0.02742   0.00000
  69        3PX         0.03502  -0.09843  -0.07101   0.04116   0.00000
  70        3PY         0.00468  -0.12173  -0.07115   0.27548   0.00000
  71        3PZ         0.00000   0.00000   0.00000   0.00000   0.21054
  72        4XX        -0.00749   0.01872   0.01264  -0.00040   0.00000
  73        4YY         0.00149   0.00023   0.00176  -0.00619   0.00000
  74        4ZZ        -0.00112   0.00005   0.00120  -0.00036   0.00000
  75        4XY        -0.00054  -0.00078   0.00058  -0.00923   0.00000
  76        4XZ         0.00000   0.00000   0.00000   0.00000  -0.00809
  77        4YZ         0.00000   0.00000   0.00000   0.00000  -0.00170
  78 7   H  1S         -0.01267  -0.14517  -0.05821  -0.02259   0.00000
  79        2S         -0.02093  -0.20981  -0.08265  -0.03261   0.00000
  80 8   C  1S         -0.01294  -0.00155  -0.02116   0.00909   0.00000
  81        2S          0.01820   0.00261   0.03604  -0.01618   0.00000
  82        2PX         0.05523  -0.01695   0.04257   0.00576   0.00000
  83        2PY        -0.23482  -0.02074  -0.18894   0.07949   0.00000
  84        2PZ         0.00000   0.00000   0.00000   0.00000  -0.02523
  85        3S          0.07106   0.00690   0.11772  -0.05099   0.00000
  86        3PX         0.03431   0.00491   0.02477  -0.01740   0.00000
  87        3PY        -0.17111  -0.01291  -0.15655   0.05986   0.00000
  88        3PZ         0.00000   0.00000   0.00000   0.00000   0.00986
  89        4XX        -0.00388  -0.00011  -0.00297   0.00073   0.00000
  90        4YY         0.00745  -0.00073   0.00159   0.00083   0.00000
  91        4ZZ        -0.00533   0.00049  -0.00324   0.00017   0.00000
  92        4XY        -0.00085  -0.00296   0.00022   0.00351   0.00000
  93        4XZ         0.00000   0.00000   0.00000   0.00000   0.00228
  94        4YZ         0.00000   0.00000   0.00000   0.00000  -0.00469
  95 9   H  1S         -0.03074  -0.01822  -0.01778   0.02569   0.00000
  96        2S         -0.01611  -0.01985  -0.02477   0.03641   0.00000
  97 10  H  1S         -0.04535   0.00550  -0.02777   0.00081  -0.01975
  98        2S         -0.03219   0.00676  -0.03245   0.00221  -0.02751
  99 11  H  1S         -0.04535   0.00550  -0.02777   0.00081   0.01975
 100        2S         -0.03219   0.00676  -0.03245   0.00221   0.02751
 101 12  H  1S         -0.04043   0.10537   0.06392   0.00718   0.00000
 102        2S         -0.03512   0.12169   0.07967   0.00998   0.00000
                          21        22        23        24        25
                           O         O         V         V         V
     Eigenvalues --    -0.21779  -0.20144  -0.16025  -0.11522  -0.11148
   1 1   C  1S          0.00000   0.00000   0.03825   0.00000  -0.00868
   2        2S          0.00000   0.00000  -0.08101   0.00000   0.01643
   3        2PX         0.00000   0.00000   0.16578   0.00000  -0.05757
   4        2PY         0.00000   0.00000  -0.03147   0.00000   0.01034
   5        2PZ        -0.21867  -0.15539   0.00000   0.02560   0.00000
   6        3S          0.00000   0.00000  -0.18827   0.00000   0.05307
   7        3PX         0.00000   0.00000   0.08599   0.00000   0.01718
   8        3PY         0.00000   0.00000  -0.07165   0.00000   0.00555
   9        3PZ        -0.17821  -0.10215   0.00000   0.01871   0.00000
  10        4XX         0.00000   0.00000   0.01285   0.00000  -0.00147
  11        4YY         0.00000   0.00000  -0.00439   0.00000  -0.00125
  12        4ZZ         0.00000   0.00000   0.00094   0.00000  -0.00014
  13        4XY         0.00000   0.00000   0.00526   0.00000  -0.00750
  14        4XZ         0.00048   0.00542   0.00000  -0.00136   0.00000
  15        4YZ        -0.00593  -0.01292   0.00000   0.00286   0.00000
  16 2   C  1S          0.00000   0.00000  -0.09406   0.00000   0.02500
  17        2S          0.00000   0.00000   0.21502   0.00000  -0.06165
  18        2PX         0.00000   0.00000  -0.29038   0.00000   0.10376
  19        2PY         0.00000   0.00000  -0.14381   0.00000   0.00708
  20        2PZ        -0.18275  -0.30898   0.00000   0.04655   0.00000
  21        3S          0.00000   0.00000   0.38956   0.00000  -0.08471
  22        3PX         0.00000   0.00000  -0.17484   0.00000   0.07882
  23        3PY         0.00000   0.00000  -0.06570   0.00000  -0.00374
  24        3PZ        -0.11502  -0.23485   0.00000   0.02990   0.00000
  25        4XX         0.00000   0.00000  -0.01254   0.00000   0.00570
  26        4YY         0.00000   0.00000  -0.01958   0.00000   0.00450
  27        4ZZ         0.00000   0.00000  -0.00287   0.00000  -0.00008
  28        4XY         0.00000   0.00000   0.00421   0.00000  -0.00148
  29        4XZ        -0.00748  -0.00520   0.00000   0.00232   0.00000
  30        4YZ         0.00082   0.00215   0.00000   0.00061   0.00000
  31 3   N  1S          0.00000   0.00000   0.00013   0.00000   0.01445
  32        2S          0.00000   0.00000   0.00005   0.00000  -0.04769
  33        2PX         0.00000   0.00000   0.14178   0.00000   0.53416
  34        2PY         0.00000   0.00000   0.05122   0.00000   0.03608
  35        2PZ        -0.16195   0.52683   0.00000  -0.17262   0.00000
  36        3S          0.00000   0.00000  -0.00329   0.00000  -0.03188
  37        3PX         0.00000   0.00000   0.10209   0.00000   0.41187
  38        3PY         0.00000   0.00000   0.02754   0.00000   0.02896
  39        3PZ        -0.11440   0.38340   0.00000  -0.12071   0.00000
  40        4XX         0.00000   0.00000   0.00123   0.00000   0.00266
  41        4YY         0.00000   0.00000  -0.00158   0.00000  -0.00335
  42        4ZZ         0.00000   0.00000   0.00010   0.00000  -0.00263
  43        4XY         0.00000   0.00000   0.00163   0.00000   0.00272
  44        4XZ        -0.00084  -0.00136   0.00000  -0.00366   0.00000
  45        4YZ        -0.00321   0.00140   0.00000  -0.00152   0.00000
  46 4   H  1S          0.00000   0.00000   0.06400   0.00000  -0.03828
  47        2S          0.00000   0.00000   0.11897   0.00000  -0.06400
  48 5   C  1S          0.00000   0.00000  -0.03775   0.00000  -0.08141
  49        2S          0.00000   0.00000   0.08248   0.00000   0.19143
  50        2PX         0.00000   0.00000  -0.07503   0.00000   0.14878
  51        2PY         0.00000   0.00000   0.14494   0.00000   0.14429
  52        2PZ         0.22951   0.10544   0.00000   0.54408   0.00000
  53        3S          0.00000   0.00000   0.18299   0.00000   0.37535
  54        3PX         0.00000   0.00000  -0.08699   0.00000   0.08242
  55        3PY         0.00000   0.00000   0.05574   0.00000   0.04207
  56        3PZ         0.18454   0.09641   0.00000   0.43846   0.00000
  57        4XX         0.00000   0.00000   0.00093   0.00000  -0.01739
  58        4YY         0.00000   0.00000  -0.01338   0.00000  -0.01097
  59        4ZZ         0.00000   0.00000   0.00045   0.00000   0.00435
  60        4XY         0.00000   0.00000  -0.00054   0.00000  -0.00658
  61        4XZ        -0.00951   0.00191   0.00000  -0.00916   0.00000
  62        4YZ        -0.00266  -0.00404   0.00000  -0.02116   0.00000
  63 6   N  1S          0.00000   0.00000   0.05815   0.00000   0.01615
  64        2S          0.00000   0.00000  -0.13224   0.00000  -0.03261
  65        2PX         0.00000   0.00000  -0.17104   0.00000  -0.02192
  66        2PY         0.00000   0.00000  -0.14158   0.00000   0.25800
  67        2PZ         0.46828  -0.09325   0.00000  -0.32508   0.00000
  68        3S          0.00000   0.00000  -0.28909   0.00000  -0.10037
  69        3PX         0.00000   0.00000  -0.08528   0.00000   0.00777
  70        3PY         0.00000   0.00000  -0.10563   0.00000   0.22213
  71        3PZ         0.37380  -0.08149   0.00000  -0.26702   0.00000
  72        4XX         0.00000   0.00000   0.01575   0.00000   0.00668
  73        4YY         0.00000   0.00000   0.00672   0.00000   0.00063
  74        4ZZ         0.00000   0.00000  -0.00068   0.00000   0.00201
  75        4XY         0.00000   0.00000   0.00623   0.00000  -0.01597
  76        4XZ        -0.01725   0.00329   0.00000   0.01716   0.00000
  77        4YZ        -0.00463  -0.00168   0.00000  -0.00493   0.00000
  78 7   H  1S          0.00000   0.00000  -0.05340   0.00000  -0.07152
  79        2S          0.00000   0.00000  -0.11304   0.00000  -0.19906
  80 8   C  1S          0.00000   0.00000   0.04408   0.00000  -0.01206
  81        2S          0.00000   0.00000  -0.09299   0.00000   0.02799
  82        2PX         0.00000   0.00000  -0.02942   0.00000   0.00880
  83        2PY         0.00000   0.00000   0.29652   0.00000  -0.07363
  84        2PZ         0.01453   0.02428   0.00000  -0.00248   0.00000
  85        3S          0.00000   0.00000  -0.22064   0.00000   0.05796
  86        3PX         0.00000   0.00000  -0.07388   0.00000   0.01584
  87        3PY         0.00000   0.00000   0.26642   0.00000  -0.07184
  88        3PZ        -0.01678  -0.01647   0.00000   0.00802   0.00000
  89        4XX         0.00000   0.00000  -0.00012   0.00000   0.00064
  90        4YY         0.00000   0.00000   0.01038   0.00000  -0.00422
  91        4ZZ         0.00000   0.00000  -0.00018   0.00000   0.00082
  92        4XY         0.00000   0.00000   0.00434   0.00000  -0.00121
  93        4XZ        -0.00129  -0.00241   0.00000   0.00032   0.00000
  94        4YZ         0.00295   0.00539   0.00000  -0.00083   0.00000
  95 9   H  1S          0.00000   0.00000   0.04948   0.00000  -0.01131
  96        2S          0.00000   0.00000   0.08992   0.00000  -0.02162
  97 10  H  1S          0.01202   0.02089   0.01317  -0.00290  -0.00171
  98        2S          0.02445   0.03264   0.02495  -0.00926  -0.00571
  99 11  H  1S         -0.01202  -0.02089   0.01317   0.00290  -0.00171
 100        2S         -0.02445  -0.03264   0.02495   0.00926  -0.00571
 101 12  H  1S          0.00000   0.00000   0.07839   0.00000   0.03251
 102        2S          0.00000   0.00000   0.15366   0.00000   0.06318
                          26        27        28        29        30
                           V         V         V         V         V
     Eigenvalues --    -0.07921  -0.06142  -0.04197  -0.00017   0.09840
   1 1   C  1S          0.08438   0.00000  -0.00325  -0.05427   0.01772
   2        2S         -0.19137   0.00000   0.00784   0.11022  -0.02632
   3        2PX         0.05520   0.00000   0.04249   0.06240   0.11322
   4        2PY         0.23090   0.00000  -0.09196  -0.27874  -0.04496
   5        2PZ         0.00000   0.48488   0.00000   0.00000   0.00000
   6        3S         -0.40877   0.00000   0.01126   0.38616  -0.11934
   7        3PX         0.01506   0.00000   0.09715   0.13924   0.23188
   8        3PY         0.17063   0.00000  -0.10168  -0.17468  -0.11559
   9        3PZ         0.00000   0.43312   0.00000   0.00000   0.00000
  10        4XX        -0.00221   0.00000   0.00022  -0.01426   0.01191
  11        4YY         0.03003   0.00000  -0.00321  -0.00872  -0.00229
  12        4ZZ        -0.00212   0.00000   0.00111   0.00259  -0.00015
  13        4XY        -0.00492   0.00000  -0.00448  -0.00881  -0.00323
  14        4XZ         0.00000   0.01911   0.00000   0.00000   0.00000
  15        4YZ         0.00000   0.00585   0.00000   0.00000   0.00000
  16 2   C  1S         -0.03724   0.00000  -0.02862  -0.03269  -0.03128
  17        2S          0.07578   0.00000   0.06113   0.05107   0.10085
  18        2PX         0.22582   0.00000   0.00012   0.08755   0.09962
  19        2PY         0.18272   0.00000   0.08323   0.48817  -0.01304
  20        2PZ         0.00000  -0.44669   0.00000   0.00000   0.00000
  21        3S          0.18814   0.00000   0.16656   0.24467   0.18808
  22        3PX         0.18394   0.00000   0.05819   0.09245   0.18425
  23        3PY         0.18220   0.00000   0.04968   0.41603  -0.11309
  24        3PZ         0.00000  -0.37301   0.00000   0.00000   0.00000
  25        4XX         0.00097   0.00000  -0.00587  -0.00712  -0.00316
  26        4YY        -0.01483   0.00000  -0.00342  -0.00891   0.00408
  27        4ZZ        -0.00248   0.00000  -0.00067  -0.00202   0.00224
  28        4XY         0.01212   0.00000  -0.00069   0.00326   0.00316
  29        4XZ         0.00000   0.01096   0.00000   0.00000   0.00000
  30        4YZ         0.00000  -0.00797   0.00000   0.00000   0.00000
  31 3   N  1S         -0.02291   0.00000   0.02172   0.01781   0.00297
  32        2S          0.06425   0.00000  -0.05855  -0.05339  -0.00170
  33        2PX        -0.07090   0.00000   0.18113  -0.02853  -0.02406
  34        2PY         0.47100   0.00000   0.01055  -0.25880  -0.01656
  35        2PZ         0.00000  -0.14237   0.00000   0.00000   0.00000
  36        3S          0.08888   0.00000  -0.09193  -0.07079  -0.03253
  37        3PX        -0.05634   0.00000   0.16421  -0.02167  -0.01717
  38        3PY         0.38957   0.00000  -0.01486  -0.22207  -0.03572
  39        3PZ         0.00000  -0.10184   0.00000   0.00000   0.00000
  40        4XX         0.00162   0.00000   0.00390  -0.00488   0.00156
  41        4YY        -0.00471   0.00000   0.00328   0.00905   0.00198
  42        4ZZ         0.00007   0.00000  -0.00007  -0.00168   0.00210
  43        4XY         0.00223   0.00000   0.00539  -0.00111   0.00197
  44        4XZ         0.00000  -0.00018   0.00000   0.00000   0.00000
  45        4YZ         0.00000   0.00564   0.00000   0.00000   0.00000
  46 4   H  1S          0.03435   0.00000  -0.02003  -0.08338   0.02253
  47        2S          0.13525   0.00000  -0.04935  -0.30122  -0.11854
  48 5   C  1S         -0.00586   0.00000   0.03337  -0.01052  -0.00252
  49        2S          0.02172   0.00000  -0.07418   0.02125   0.00715
  50        2PX         0.03508   0.00000   0.46323  -0.10672  -0.02064
  51        2PY        -0.00681   0.00000  -0.24254   0.05873   0.00651
  52        2PZ         0.00000   0.00243   0.00000   0.00000   0.00000
  53        3S          0.01042   0.00000  -0.19221   0.08452   0.02180
  54        3PX         0.01295   0.00000   0.42682  -0.09700  -0.01231
  55        3PY         0.00818   0.00000  -0.21757   0.01750  -0.00283
  56        3PZ         0.00000   0.00012   0.00000   0.00000   0.00000
  57        4XX        -0.00219   0.00000  -0.01191   0.00289   0.00057
  58        4YY         0.00157   0.00000   0.02330  -0.00631  -0.00130
  59        4ZZ         0.00144   0.00000   0.00136  -0.00049   0.00018
  60        4XY         0.00147   0.00000  -0.02046   0.00215   0.00071
  61        4XZ         0.00000  -0.00130   0.00000   0.00000   0.00000
  62        4YZ         0.00000   0.00055   0.00000   0.00000   0.00000
  63 6   N  1S         -0.01477   0.00000  -0.05411  -0.00754  -0.00245
  64        2S          0.03596   0.00000   0.11312   0.01996   0.00745
  65        2PX         0.03699   0.00000   0.05281   0.02591  -0.01373
  66        2PY         0.08553   0.00000  -0.35766   0.14115   0.03157
  67        2PZ         0.00000   0.04982   0.00000   0.00000   0.00000
  68        3S          0.07584   0.00000   0.36283   0.04480   0.03736
  69        3PX         0.01857   0.00000   0.02871  -0.00721  -0.03166
  70        3PY         0.08207   0.00000  -0.35717   0.13224   0.01231
  71        3PZ         0.00000   0.03402   0.00000   0.00000   0.00000
  72        4XX        -0.00402   0.00000  -0.01099  -0.00384   0.00252
  73        4YY        -0.00179   0.00000  -0.01523   0.00316  -0.00052
  74        4ZZ         0.00072   0.00000  -0.00520   0.00120   0.00034
  75        4XY        -0.00539   0.00000   0.02115  -0.01199  -0.00160
  76        4XZ         0.00000  -0.00342   0.00000   0.00000   0.00000
  77        4YZ         0.00000  -0.00215   0.00000   0.00000   0.00000
  78 7   H  1S          0.00771   0.00000   0.02087  -0.01333  -0.00243
  79        2S         -0.00228   0.00000   0.08798  -0.06952  -0.02591
  80 8   C  1S          0.03688   0.00000   0.01528   0.05944  -0.13573
  81        2S         -0.07827   0.00000  -0.04035  -0.14425   0.18036
  82        2PX        -0.05301   0.00000  -0.01557  -0.04563   0.01298
  83        2PY         0.18278   0.00000   0.08575   0.26584   0.19157
  84        2PZ         0.00000   0.02567   0.00000   0.00000   0.00000
  85        3S         -0.23093   0.00000  -0.06249  -0.36770   2.27464
  86        3PX        -0.00038   0.00000  -0.01013  -0.01698   0.06519
  87        3PY         0.20253   0.00000   0.10077   0.33269   0.55284
  88        3PZ         0.00000  -0.05994   0.00000   0.00000   0.00000
  89        4XX         0.00022   0.00000  -0.00173  -0.00492  -0.01549
  90        4YY         0.01006   0.00000   0.00726   0.02767  -0.00757
  91        4ZZ         0.00029   0.00000  -0.00139  -0.00485  -0.01248
  92        4XY        -0.00833   0.00000  -0.00226  -0.01010  -0.00520
  93        4XZ         0.00000  -0.00370   0.00000   0.00000   0.00000
  94        4YZ         0.00000   0.00968   0.00000   0.00000   0.00000
  95 9   H  1S         -0.01537   0.00000   0.00043  -0.00765  -0.05130
  96        2S          0.01070   0.00000  -0.00541   0.02579  -1.35539
  97 10  H  1S          0.02163   0.03304   0.00434   0.00990  -0.02178
  98        2S          0.07504   0.06999   0.01307   0.11086  -1.02008
  99 11  H  1S          0.02163  -0.03304   0.00434   0.00990  -0.02178
 100        2S          0.07504  -0.06999   0.01307   0.11086  -1.02008
 101 12  H  1S         -0.01521   0.00000  -0.04776  -0.01562   0.00471
 102        2S         -0.05083   0.00000  -0.19840  -0.05704  -0.07679
                          31        32        33        34        35
                           V         V         V         V         V
     Eigenvalues --     0.11568   0.13964   0.14965   0.14999   0.16782
   1 1   C  1S         -0.09102  -0.00701   0.04610   0.00000   0.00231
   2        2S          0.16648  -0.00038  -0.07195   0.00000  -0.00702
   3        2PX        -0.20673  -0.02198  -0.05398   0.00000  -0.06560
   4        2PY         0.32583   0.03007  -0.16997   0.00000   0.01901
   5        2PZ         0.00000   0.00000   0.00000  -0.00709   0.00000
   6        3S          1.02741   0.08489  -0.73761   0.00000  -0.08437
   7        3PX        -0.22025  -0.09494  -0.18612   0.00000  -0.14887
   8        3PY         0.59531   0.03202  -0.35778   0.00000  -0.01899
   9        3PZ         0.00000   0.00000   0.00000  -0.03090   0.00000
  10        4XX        -0.03239  -0.00757   0.00889   0.00000  -0.00370
  11        4YY         0.00964   0.00113   0.00002   0.00000   0.00109
  12        4ZZ        -0.00287  -0.00177   0.00583   0.00000   0.00100
  13        4XY         0.01338   0.00390  -0.00830   0.00000   0.00651
  14        4XZ         0.00000   0.00000   0.00000  -0.00298   0.00000
  15        4YZ         0.00000   0.00000   0.00000   0.00002   0.00000
  16 2   C  1S          0.05221   0.01267  -0.01565   0.00000   0.00412
  17        2S         -0.08899  -0.03962   0.03121   0.00000  -0.01519
  18        2PX        -0.35691  -0.00653   0.13120   0.00000  -0.07245
  19        2PY         0.23022   0.10800   0.00037   0.00000   0.04003
  20        2PZ         0.00000   0.00000   0.00000   0.05144   0.00000
  21        3S         -0.47067  -0.06794   0.13562   0.00000  -0.03779
  22        3PX        -0.55581  -0.04789   0.25050   0.00000  -0.07470
  23        3PY         0.30972   0.10488  -0.00438   0.00000   0.02258
  24        3PZ         0.00000   0.00000   0.00000   0.09925   0.00000
  25        4XX         0.02692  -0.00074  -0.00226   0.00000  -0.00130
  26        4YY        -0.00393   0.00304   0.00238   0.00000   0.00028
  27        4ZZ        -0.00059  -0.00175  -0.00330   0.00000  -0.00110
  28        4XY        -0.01524   0.00268  -0.00347   0.00000  -0.00275
  29        4XZ         0.00000   0.00000   0.00000  -0.00261   0.00000
  30        4YZ         0.00000   0.00000   0.00000  -0.00898   0.00000
  31 3   N  1S         -0.01417   0.00239   0.00685   0.00000   0.00457
  32        2S          0.03581  -0.01123  -0.02222   0.00000  -0.01597
  33        2PX         0.04600   0.03547  -0.00474   0.00000   0.04800
  34        2PY         0.09339   0.00110  -0.04278   0.00000  -0.00707
  35        2PZ         0.00000   0.00000   0.00000   0.00242   0.00000
  36        3S          0.09558  -0.00432  -0.03810   0.00000  -0.01931
  37        3PX         0.00435   0.02735   0.02131   0.00000   0.05106
  38        3PY         0.12041  -0.00279  -0.04754   0.00000  -0.01414
  39        3PZ         0.00000   0.00000   0.00000   0.00294   0.00000
  40        4XX        -0.00034   0.00007  -0.00051   0.00000   0.00331
  41        4YY        -0.00499  -0.00277   0.00125   0.00000  -0.00386
  42        4ZZ        -0.00050  -0.00161  -0.00133   0.00000  -0.00081
  43        4XY        -0.00368  -0.00248  -0.00037   0.00000  -0.00517
  44        4XZ         0.00000   0.00000   0.00000  -0.00005   0.00000
  45        4YZ         0.00000   0.00000   0.00000  -0.00035   0.00000
  46 4   H  1S         -0.04025  -0.00171   0.00580   0.00000   0.01266
  47        2S         -0.77255   0.01113   0.88346   0.00000   0.22121
  48 5   C  1S         -0.00854   0.05389   0.00433   0.00000   0.04993
  49        2S          0.02155  -0.11627  -0.01042   0.00000  -0.08336
  50        2PX         0.02689   0.12293  -0.00988   0.00000   0.09031
  51        2PY        -0.02839   0.15797   0.02645   0.00000   0.38512
  52        2PZ         0.00000   0.00000   0.00000  -0.00069   0.00000
  53        3S          0.10620  -0.79811  -0.07355   0.00000  -1.12232
  54        3PX        -0.02193   0.21685   0.01783   0.00000   0.27258
  55        3PY        -0.06567   0.40932   0.06230   0.00000   0.86123
  56        3PZ         0.00000   0.00000   0.00000   0.00061   0.00000
  57        4XX        -0.00034  -0.00022   0.00012   0.00000   0.00687
  58        4YY         0.00005   0.00703  -0.00003   0.00000  -0.00957
  59        4ZZ         0.00031   0.00369   0.00013   0.00000   0.01109
  60        4XY        -0.00214  -0.00483   0.00145   0.00000  -0.00273
  61        4XZ         0.00000   0.00000   0.00000   0.00012   0.00000
  62        4YZ         0.00000   0.00000   0.00000  -0.00001   0.00000
  63 6   N  1S         -0.00833   0.06128  -0.00649   0.00000  -0.02568
  64        2S          0.01168  -0.09359   0.01127   0.00000   0.02343
  65        2PX        -0.02078   0.30681  -0.02245   0.00000  -0.24033
  66        2PY        -0.03736  -0.04747   0.02491   0.00000   0.05220
  67        2PZ         0.00000   0.00000   0.00000  -0.01137   0.00000
  68        3S          0.11808  -0.98947   0.08281   0.00000   0.56553
  69        3PX        -0.08004   0.64507  -0.03780   0.00000  -0.50150
  70        3PY        -0.01173  -0.08440   0.03110   0.00000   0.07202
  71        3PZ         0.00000   0.00000   0.00000  -0.00076   0.00000
  72        4XX        -0.00530   0.00116   0.00085   0.00000   0.01056
  73        4YY         0.00126   0.01818  -0.00431   0.00000  -0.01573
  74        4ZZ        -0.00293   0.02385  -0.00248   0.00000  -0.01846
  75        4XY         0.00122   0.00224  -0.00285   0.00000  -0.00626
  76        4XZ         0.00000   0.00000   0.00000   0.00100   0.00000
  77        4YZ         0.00000   0.00000   0.00000   0.00080   0.00000
  78 7   H  1S         -0.00822   0.03830   0.00636   0.00000   0.03439
  79        2S         -0.15375   1.13271   0.12575   0.00000   1.86456
  80 8   C  1S         -0.02069  -0.00529  -0.01138   0.00000   0.00131
  81        2S          0.01066  -0.00132   0.01732   0.00000  -0.00911
  82        2PX        -0.10397  -0.01855  -0.39853   0.00000   0.05054
  83        2PY         0.09796   0.04395  -0.04616   0.00000   0.02420
  84        2PZ         0.00000   0.00000   0.00000  -0.42542   0.00000
  85        3S          0.49497   0.15454   0.19599   0.00000   0.01249
  86        3PX        -0.47954  -0.05563  -1.14578   0.00000   0.15144
  87        3PY         0.18671   0.08194  -0.15207   0.00000   0.04432
  88        3PZ         0.00000   0.00000   0.00000  -1.32439   0.00000
  89        4XX        -0.00272  -0.00178   0.01165   0.00000  -0.00327
  90        4YY         0.01301   0.00456   0.00045   0.00000   0.00250
  91        4ZZ        -0.01383  -0.00331  -0.01426   0.00000   0.00059
  92        4XY         0.01129  -0.00104  -0.00029   0.00000   0.00027
  93        4XZ         0.00000   0.00000   0.00000  -0.01991   0.00000
  94        4YZ         0.00000   0.00000   0.00000  -0.00107   0.00000
  95 9   H  1S          0.06344  -0.00078   0.07769   0.00000  -0.01246
  96        2S          0.27717  -0.03773   1.50352   0.00000  -0.22176
  97 10  H  1S         -0.05081  -0.00822  -0.04412   0.09951   0.00440
  98        2S         -0.57691  -0.11952  -0.90139   1.56465   0.09853
  99 11  H  1S         -0.05081  -0.00822  -0.04412  -0.09951   0.00440
 100        2S         -0.57691  -0.11952  -0.90139  -1.56465   0.09853
 101 12  H  1S         -0.02570   0.06118   0.00125   0.00000  -0.01355
 102        2S         -0.16886   1.56435  -0.11904   0.00000  -1.04994
                          36        37        38        39        40
                           V         V         V         V         V
     Eigenvalues --     0.18893   0.47154   0.47958   0.50118   0.53568
   1 1   C  1S          0.02716  -0.01452   0.00000   0.01422   0.00000
   2        2S         -0.03268   0.00901   0.00000  -0.05181   0.00000
   3        2PX        -0.45487   0.03688   0.00000   0.36850   0.00000
   4        2PY        -0.10861  -0.05791   0.00000   0.14717   0.00000
   5        2PZ         0.00000   0.00000  -0.10707   0.00000  -0.43929
   6        3S         -0.93739  -0.00397   0.00000  -0.15316   0.00000
   7        3PX        -1.03827   0.17139   0.00000  -0.61530   0.00000
   8        3PY        -0.33149   0.15676   0.00000  -0.21377   0.00000
   9        3PZ         0.00000   0.00000   0.03842   0.00000   0.40599
  10        4XX        -0.02038  -0.05429   0.00000  -0.00424   0.00000
  11        4YY         0.00655   0.00078   0.00000  -0.01083   0.00000
  12        4ZZ         0.01256   0.01523   0.00000  -0.01631   0.00000
  13        4XY         0.00483   0.02590   0.00000   0.05514   0.00000
  14        4XZ         0.00000   0.00000   0.00732   0.00000  -0.00356
  15        4YZ         0.00000   0.00000  -0.00333   0.00000  -0.00944
  16 2   C  1S          0.03240  -0.00036   0.00000   0.01296   0.00000
  17        2S         -0.08922  -0.07979   0.00000  -0.08619   0.00000
  18        2PX        -0.19561  -0.55199   0.00000   0.09595   0.00000
  19        2PY         0.19148  -0.04335   0.00000   0.34475   0.00000
  20        2PZ         0.00000   0.00000  -0.57990   0.00000  -0.15015
  21        3S         -0.26415   0.11895   0.00000  -0.18611   0.00000
  22        3PX        -0.24693   0.48773   0.00000  -0.03299   0.00000
  23        3PY         0.31813  -0.12058   0.00000  -0.33951   0.00000
  24        3PZ         0.00000   0.00000   0.42707   0.00000   0.12933
  25        4XX         0.00302  -0.02663   0.00000  -0.04465   0.00000
  26        4YY         0.00651  -0.00481   0.00000   0.01306   0.00000
  27        4ZZ        -0.00436  -0.00478   0.00000   0.00309   0.00000
  28        4XY        -0.00749   0.04712   0.00000   0.02432   0.00000
  29        4XZ         0.00000   0.00000  -0.00802   0.00000  -0.00029
  30        4YZ         0.00000   0.00000   0.03450   0.00000  -0.01529
  31 3   N  1S          0.00142  -0.00301   0.00000   0.00959   0.00000
  32        2S         -0.01291  -0.00203   0.00000   0.01777   0.00000
  33        2PX         0.04512   0.00558   0.00000   0.14312   0.00000
  34        2PY        -0.01242  -0.02802   0.00000  -0.09802   0.00000
  35        2PZ         0.00000   0.00000  -0.02208   0.00000  -0.25222
  36        3S          0.00697   0.04292   0.00000  -0.14374   0.00000
  37        3PX         0.05942  -0.01365   0.00000   0.03392   0.00000
  38        3PY         0.00743   0.06763   0.00000   0.04395   0.00000
  39        3PZ         0.00000   0.00000   0.01165   0.00000   0.15422
  40        4XX        -0.00077  -0.00424   0.00000   0.02834   0.00000
  41        4YY        -0.00243  -0.00104   0.00000  -0.00447   0.00000
  42        4ZZ        -0.00280  -0.00366   0.00000   0.01683   0.00000
  43        4XY        -0.00786   0.00017   0.00000  -0.03207   0.00000
  44        4XZ         0.00000   0.00000  -0.00159   0.00000  -0.01718
  45        4YZ         0.00000   0.00000   0.00036   0.00000   0.00388
  46 4   H  1S          0.01933  -0.11429   0.00000   0.22242   0.00000
  47        2S          1.92911  -0.19475   0.00000   0.14058   0.00000
  48 5   C  1S         -0.00848   0.00260   0.00000   0.02205   0.00000
  49        2S          0.00884   0.04430   0.00000   0.11528   0.00000
  50        2PX        -0.02597  -0.04585   0.00000  -0.19619   0.00000
  51        2PY        -0.10887  -0.00431   0.00000  -0.42186   0.00000
  52        2PZ         0.00000   0.00000  -0.07216   0.00000  -0.83996
  53        3S          0.24647  -0.10696   0.00000  -0.54401   0.00000
  54        3PX        -0.05035   0.07199   0.00000   0.35147   0.00000
  55        3PY        -0.16754   0.01554   0.00000   0.97328   0.00000
  56        3PZ         0.00000   0.00000   0.06614   0.00000   0.85599
  57        4XX        -0.00303  -0.00022   0.00000  -0.02007   0.00000
  58        4YY         0.00491   0.01045   0.00000   0.06030   0.00000
  59        4ZZ        -0.00371   0.00250   0.00000  -0.01540   0.00000
  60        4XY         0.00451   0.00293   0.00000   0.04971   0.00000
  61        4XZ         0.00000   0.00000   0.00079   0.00000   0.00800
  62        4YZ         0.00000   0.00000   0.00216   0.00000   0.00987
  63 6   N  1S         -0.00065  -0.00150   0.00000   0.02148   0.00000
  64        2S          0.00061   0.02245   0.00000  -0.00622   0.00000
  65        2PX         0.01683  -0.02082   0.00000  -0.15297   0.00000
  66        2PY        -0.02070   0.02954   0.00000  -0.15341   0.00000
  67        2PZ         0.00000   0.00000  -0.06434   0.00000  -0.21251
  68        3S         -0.02207  -0.04401   0.00000  -0.21702   0.00000
  69        3PX         0.06247   0.14515   0.00000   0.07660   0.00000
[...]
  91        4ZZ         0.00000   0.00000   0.00000   0.00000  -0.00146
  92        4XY         0.00000   0.00000   0.00000   0.00000   0.00000
  93        4XZ         0.00000   0.00000   0.00000   0.00000   0.00000
  94        4YZ         0.00000   0.00000   0.00000   0.00000   0.00000
  95 9   H  1S          0.00000   0.00000   0.00000   0.00000  -0.00171
  96        2S          0.00000   0.00000   0.00000   0.00000  -0.00080
  97 10  H  1S          0.00000   0.00000   0.00000   0.00000  -0.00166
  98        2S          0.00000  -0.00003   0.00000   0.00000  -0.00066
  99 11  H  1S          0.00000   0.00000   0.00000   0.00000  -0.00166
 100        2S          0.00000  -0.00003   0.00000   0.00000  -0.00066
 101 12  H  1S          0.00000   0.00000   0.00000  -0.00019   0.00000
 102        2S          0.00000   0.00000   0.00003   0.00069   0.00000
                          81        82        83        84        85
  81        2S          0.29636
  82        2PX         0.00000   0.41043
  83        2PY         0.00000   0.00000   0.38340
  84        2PZ         0.00000   0.00000   0.00000   0.40644
  85        3S          0.23050   0.00000   0.00000   0.00000   0.32454
  86        3PX         0.00000   0.11422   0.00000   0.00000   0.00000
  87        3PY         0.00000   0.00000   0.11392   0.00000   0.00000
  88        3PZ         0.00000   0.00000   0.00000   0.10607   0.00000
  89        4XX         0.00040   0.00000   0.00000   0.00000  -0.00025
  90        4YY        -0.00291   0.00000   0.00000   0.00000  -0.00061
  91        4ZZ        -0.00007   0.00000   0.00000   0.00000  -0.00049
  92        4XY         0.00000   0.00000   0.00000   0.00000   0.00000
  93        4XZ         0.00000   0.00000   0.00000   0.00000   0.00000
  94        4YZ         0.00000   0.00000   0.00000   0.00000   0.00000
  95 9   H  1S          0.02832   0.07548   0.02257   0.00000   0.03213
  96        2S          0.01389   0.04375   0.01304   0.00000   0.01007
  97 10  H  1S          0.02728   0.02509   0.00807   0.06334   0.03087
  98        2S          0.01171   0.01531   0.00460   0.03996   0.00554
  99 11  H  1S          0.02728   0.02509   0.00807   0.06334   0.03087
 100        2S          0.01171   0.01531   0.00460   0.03996   0.00554
 101 12  H  1S          0.00000   0.00000  -0.00001   0.00000  -0.00030
 102        2S         -0.00004   0.00030  -0.00036   0.00000  -0.00055
                          86        87        88        89        90
  86        3PX         0.09851
  87        3PY         0.00000   0.11161
  88        3PZ         0.00000   0.00000   0.08696
  89        4XX         0.00000   0.00000   0.00000   0.00092
  90        4YY         0.00000   0.00000   0.00000  -0.00009   0.00116
  91        4ZZ         0.00000   0.00000   0.00000   0.00001  -0.00018
  92        4XY         0.00000   0.00000   0.00000   0.00000   0.00000
  93        4XZ         0.00000   0.00000   0.00000   0.00000   0.00000
  94        4YZ         0.00000   0.00000   0.00000   0.00000   0.00000
  95 9   H  1S          0.05057   0.01658   0.00000   0.00404  -0.00055
  96        2S          0.04592   0.01490   0.00000   0.00342  -0.00060
  97 10  H  1S          0.01775   0.00584   0.04027  -0.00012  -0.00092
  98        2S          0.01659   0.00538   0.03807  -0.00032  -0.00163
  99 11  H  1S          0.01775   0.00584   0.04027  -0.00012  -0.00092
 100        2S          0.01659   0.00538   0.03807  -0.00032  -0.00163
 101 12  H  1S          0.00003  -0.00034   0.00000   0.00000   0.00000
 102        2S          0.00087  -0.00102   0.00000   0.00002  -0.00003
                          91        92        93        94        95
  91        4ZZ         0.00116
  92        4XY         0.00000   0.00093
  93        4XZ         0.00000   0.00000   0.00113
  94        4YZ         0.00000   0.00000   0.00000   0.00090
  95 9   H  1S         -0.00078   0.00286   0.00000   0.00000   0.21056
  96        2S         -0.00197   0.00058   0.00000   0.00000   0.09948
  97 10  H  1S          0.00261   0.00032   0.00273   0.00102  -0.00037
  98        2S          0.00253   0.00008   0.00062   0.00028  -0.00593
  99 11  H  1S          0.00261   0.00032   0.00273   0.00102  -0.00037
 100        2S          0.00253   0.00008   0.00062   0.00028  -0.00593
 101 12  H  1S          0.00000   0.00000   0.00000   0.00000   0.00000
 102        2S          0.00001  -0.00003   0.00000   0.00000   0.00000
                          96        97        98        99       100
  96        2S          0.11929
  97 10  H  1S         -0.00532   0.21163
  98        2S         -0.01497   0.10777   0.14626
  99 11  H  1S         -0.00532  -0.00046  -0.00740   0.21163
 100        2S         -0.01497  -0.00740  -0.02408   0.10777   0.14626
 101 12  H  1S          0.00000   0.00000   0.00006   0.00000   0.00006
 102        2S         -0.00010   0.00010   0.00076   0.00010   0.00076
                         101       102
 101 12  H  1S          0.20657
 102        2S          0.06635   0.06944
     Gross orbital populations:
                           1
   1 1   C  1S          1.99169
   2        2S          0.70500
   3        2PX         0.76121
   4        2PY         0.69256
   5        2PZ         0.62296
   6        3S          0.48789
   7        3PX         0.19869
   8        3PY         0.13636
   9        3PZ         0.45614
  10        4XX         0.01696
  11        4YY         0.00405
  12        4ZZ        -0.02591
  13        4XY         0.01873
  14        4XZ         0.00371
  15        4YZ         0.00878
  16 2   C  1S          1.99172
  17        2S          0.71121
  18        2PX         0.70176
  19        2PY         0.72480
  20        2PZ         0.64252
  21        3S          0.36804
  22        3PX         0.08497
  23        3PY         0.01911
  24        3PZ         0.40938
  25        4XX        -0.00204
  26        4YY         0.00710
  27        4ZZ        -0.02474
  28        4XY         0.02268
  29        4XZ         0.00980
  30        4YZ         0.00763
  31 3   N  1S          1.99224
  32        2S          0.81267
  33        2PX         0.85061
  34        2PY         0.86368
  35        2PZ         0.69194
  36        3S          0.96173
  37        3PX         0.35119
  38        3PY         0.41981
  39        3PZ         0.48531
  40        4XX        -0.00411
  41        4YY        -0.00502
  42        4ZZ        -0.01711
  43        4XY         0.00642
  44        4XZ         0.00844
  45        4YZ         0.00644
  46 4   H  1S          0.53216
  47        2S          0.34064
  48 5   C  1S          1.99154
  49        2S          0.71694
  50        2PX         0.73440
  51        2PY         0.70049
  52        2PZ         0.62549
  53        3S          0.35526
  54        3PX         0.13122
  55        3PY         0.09247
  56        3PZ         0.40379
  57        4XX         0.00920
  58        4YY         0.01370
  59        4ZZ        -0.02735
  60        4XY         0.03009
  61        4XZ         0.01181
  62        4YZ         0.00672
  63 6   N  1S          1.99161
  64        2S          0.77461
  65        2PX         0.81580
  66        2PY         0.82131
  67        2PZ         0.92146
  68        3S          0.87087
  69        3PX         0.36875
  70        3PY         0.35004
  71        3PZ         0.66212
  72        4XX         0.02392
  73        4YY         0.00079
  74        4ZZ        -0.02570
  75        4XY         0.00950
  76        4XZ         0.00286
  77        4YZ         0.00886
  78 7   H  1S          0.53029
  79        2S          0.31924
  80 8   C  1S          1.99186
  81        2S          0.67393
  82        2PX         0.72802
  83        2PY         0.69529
  84        2PZ         0.72088
  85        3S          0.64216
  86        3PX         0.37812
  87        3PY         0.31442
  88        3PZ         0.35803
  89        4XX         0.00404
  90        4YY        -0.00082
  91        4ZZ         0.00420
  92        4XY         0.00718
  93        4XZ         0.00804
  94        4YZ         0.00675
  95 9   H  1S          0.52319
  96        2S          0.30209
  97 10  H  1S          0.52378
  98        2S          0.31535
  99 11  H  1S          0.52378
 100        2S          0.31535
 101 12  H  1S          0.50612
 102        2S          0.16631
          Condensed to atoms (all electrons):
              1          2          3          4          5          6
     1  C    4.917236   0.582093   0.424986   0.380837  -0.121409  -0.062361
     2  C    0.582093   4.686512  -0.044107  -0.059234  -0.090867   0.345860
     3  N    0.424986  -0.044107   6.658536  -0.044537   0.541731  -0.085348
     4  H    0.380837  -0.059234  -0.044537   0.581875   0.007841   0.005000
     5  C   -0.121409  -0.090867   0.541731   0.007841   4.745303   0.350449
     6  N   -0.062361   0.345860  -0.085348   0.005000   0.350449   6.871836
     7  H    0.007344   0.003160  -0.038925  -0.000164   0.380188  -0.058740
     8  C   -0.057049   0.362517   0.006836  -0.001397   0.006196  -0.072046
     9  H   -0.002115  -0.025965   0.000038   0.002747  -0.000069   0.003403
    10  H    0.000488  -0.028478  -0.000117  -0.000026   0.000154  -0.001835
    11  H    0.000488  -0.028478  -0.000117  -0.000026   0.000154  -0.001835
    12  H    0.008294  -0.029068   0.005253  -0.000105  -0.023887   0.302422
              7          8          9         10         11         12
     1  C    0.007344  -0.057049  -0.002115   0.000488   0.000488   0.008294
     2  C    0.003160   0.362517  -0.025965  -0.028478  -0.028478  -0.029068
     3  N   -0.038925   0.006836   0.000038  -0.000117  -0.000117   0.005253
     4  H   -0.000164  -0.001397   0.002747  -0.000026  -0.000026  -0.000105
     5  C    0.380188   0.006196  -0.000069   0.000154   0.000154  -0.023887
     6  N   -0.058740  -0.072046   0.003403  -0.001835  -0.001835   0.302422
     7  H    0.556289  -0.000153   0.000004  -0.000001  -0.000001   0.000529
     8  C   -0.000153   5.195870   0.371703   0.360539   0.360539  -0.001456
     9  H    0.000004   0.371703   0.528815  -0.026592  -0.026592  -0.000099
    10  H   -0.000001   0.360539  -0.026592   0.573432  -0.039348   0.000915
    11  H   -0.000001   0.360539  -0.026592  -0.039348   0.573432   0.000915
    12  H    0.000529  -0.001456  -0.000099   0.000915   0.000915   0.408714
 Mulliken atomic charges:
              1
     1  C   -0.078832
     2  C    0.326054
     3  N   -0.424229
     4  H    0.127191
     5  C    0.204217
     6  N   -0.596806
     7  H    0.150471
     8  C   -0.532099
     9  H    0.174723
    10  H    0.160870
    11  H    0.160870
    12  H    0.327572
 Sum of Mulliken atomic charges =   0.00000
 Mulliken charges with hydrogens summed into heavy atoms:
              1
     1  C    0.048359
     2  C    0.326054
     3  N   -0.424229
     5  C    0.354687
     6  N   -0.269234
     8  C   -0.035637
 Sum of Mulliken charges with hydrogens summed into heavy atoms =   0.00000
 Electronic spatial extent (au):  <R**2>=            503.4662
 Charge=              0.0000 electrons
 Dipole moment (field-independent basis, Debye):
    X=             -3.2166    Y=              2.2075    Z=              0.0000  Tot=              3.9012
 Quadrupole moment (field-independent basis, Debye-Ang):
   XX=            -31.0338   YY=            -35.5765   ZZ=            -37.2652
   XY=              4.6355   XZ=              0.0000   YZ=              0.0000
 Traceless Quadrupole moment (field-independent basis, Debye-Ang):
   XX=              3.5914   YY=             -0.9513   ZZ=             -2.6401
   XY=              4.6355   XZ=              0.0000   YZ=              0.0000
 Octapole moment (field-independent basis, Debye-Ang**2):
  XXX=            -11.4276  YYY=              3.8904  ZZZ=              0.0000  XYY=            -10.4328
  XXY=              3.7285  XXZ=              0.0000  XZZ=             -1.8695  YZZ=              1.0892
  YYZ=              0.0000  XYZ=              0.0000
 Hexadecapole moment (field-independent basis, Debye-Ang**3):
 XXXX=           -155.7237 YYYY=           -435.6844 ZZZZ=            -42.8972 XXXY=             23.2568
 XXXZ=              0.0000 YYYX=             37.9021 YYYZ=              0.0000 ZZZX=              0.0000
 ZZZY=              0.0000 XXYY=           -107.6481 XXZZ=            -40.0946 YYZZ=            -81.7107
 XXYZ=              0.0000 YYXZ=              0.0000 ZZXY=              2.9729
 N-N= 2.238123279785D+02 E-N=-1.064157546137D+03  KE= 2.629975608699D+02
 Symmetry A'   KE= 2.528728494898D+02
 Symmetry A"   KE= 1.012471138009D+01
 Orbital energies and kinetic energies (alpha):
                                 1                 2
   1         O               -14.384800         21.955401
   2         O               -14.302218         21.961565
   3         O               -10.231197         15.879865
   4         O               -10.214739         15.881319
   5         O               -10.197807         15.882190
   6         O               -10.185923         15.879950
   7         O                -1.003850          1.808984
   8         O                -0.861408          2.050607
   9         O                -0.770358          1.552003
  10         O                -0.687432          1.573804
  11         O                -0.607224          1.654973
  12         O                -0.580212          1.503900
  13         O                -0.527960          1.408428
  14         O                -0.447296          1.289894
  15         O                -0.442345          1.034128
  16         O                -0.409453          1.524318
  17         O                -0.397532          1.412158
  18         O                -0.397217          1.159248
  19         O                -0.392519          1.291644
  20         O                -0.271113          1.606176
  21         O                -0.257626          1.925423
  22         O                -0.214674          1.262804
  23         V                 0.034349          1.653641
  24         V                 0.073652          1.094794
  25         V                 0.079802          1.693535
  26         V                 0.115062          1.049183
  27         V                 0.140352          1.064222
  28         V                 0.148767          1.116031
  29         V                 0.176402          1.053085
  30         V                 0.178718          1.057967
  31         V                 0.223636          1.824841
  32         V                 0.237600          1.892372
  33         V                 0.274164          1.588125
  34         V                 0.319516          1.777516
  35         V                 0.392509          1.463631
  36         V                 0.433111          2.056434
  37         V                 0.513607          1.979895
  38         V                 0.524349          2.246267
  39         V                 0.530383          1.878465
  40         V                 0.566645          1.956553
  41         V                 0.581798          2.546938
  42         V                 0.640070          2.235503
  43         V                 0.642565          2.083926
  44         V                 0.649540          2.146523
  45         V                 0.677597          2.741629
  46         V                 0.684379          2.462313
  47         V                 0.691916          2.226606
  48         V                 0.770480          2.733589
  49         V                 0.789172          2.620625
  50         V                 0.819884          2.565189
  51         V                 0.829936          2.399759
  52         V                 0.840000          2.652493
  53         V                 0.864126          2.703282
  54         V                 0.873511          2.569383
  55         V                 0.878916          2.471993
  56         V                 0.909230          2.686364
  57         V                 0.927071          2.528947
  58         V                 0.942435          2.765630
  59         V                 1.006479          2.597444
  60         V                 1.085332          2.331327
  61         V                 1.172763          2.576680
  62         V                 1.245648          2.408566
  63         V                 1.320266          2.490741
  64         V                 1.322292          2.498620
  65         V                 1.369498          2.536952
  66         V                 1.381467          2.512470
  67         V                 1.406694          2.644084
  68         V                 1.491211          2.464513
  69         V                 1.513783          2.720981
  70         V                 1.571348          2.786348
  71         V                 1.622780          2.787759
  72         V                 1.754753          2.981236
  73         V                 1.835484          3.129760
  74         V                 1.874694          3.282274
  75         V                 1.885327          3.066905
  76         V                 1.896255          3.488534
  77         V                 2.056710          3.585215
  78         V                 2.099805          3.771254
  79         V                 2.114636          3.766925
  80         V                 2.145376          3.454321
  81         V                 2.219422          3.701756
  82         V                 2.230211          3.466819
  83         V                 2.272336          3.526412
  84         V                 2.285631          3.818752
  85         V                 2.363876          3.820098
  86         V                 2.383230          3.971048
  87         V                 2.417111          3.627194
  88         V                 2.489614          3.797170
  89         V                 2.581088          4.364014
  90         V                 2.603502          3.857989
  91         V                 2.645980          4.431553
  92         V                 2.722442          4.567221
  93         V                 2.821689          4.722754
  94         V                 2.994174          4.673664
  95         V                 3.021660          4.836362
  96         V                 3.122458          4.908491
  97         V                 3.920743         10.304363
  98         V                 4.018316         10.400545
  99         V                 4.113240         10.272339
 100         V                 4.224589         10.050802
 101         V                 4.269666         10.107750
 102         V                 4.515134         10.150698
 Total kinetic energy from orbitals= 2.629975608699D+02
 1\1\GINC-SRVCNTHPC118\FOpt\RB3LYP\6-31G(d)\C4H6N2\ALEWIS\16-Jul-2019\0
 \\# B3LYP/6-31G(d) opt=tight scf=tight pop=full\\4-methylimidazole Geom
 etry Optimisation\\0,1\C,-4.0152334672,1.8632099093,0.\C,-2.6405095613
 ,1.8441728925,0.\N,-4.5030020629,3.1532421854,0.\H,-4.6824627452,1.010
 8744249,0.\C,-3.4364722528,3.9196103657,0.\N,-2.2827170443,3.182469728
 9,0.\H,-3.430673901,5.0017698549,0.\C,-1.6451402124,0.7306802575,0.\H,
 -2.167585403,-0.230194905,0.\H,-0.9959017328,0.75286578,0.885561907\H,
 -0.9959017328,0.75286578,-0.885561907\H,-1.3397995144,3.5443565565,0.\
 \Version=EM64L-G09RevC.01\State=1-A'\HF=-265.5354319\RMSD=4.024e-09\RM
 SF=3.365e-06\Dipole=1.5338641,-0.0549423,0.\Quadrupole=-1.4189638,3.38
 17846,-1.9628207,2.9945194,0.,0.\PG=CS [SG(C4H4N2),X(H2)]\\@


 WE ARE PERHAPS NOT FAR REMOVED FROM THE TIME WHEN WE SHALL BE ABLE TO SUBMIT
 THE BULK OF CHEMICAL PHENOMENA TO CALCULATION.

            -- JOSEPH LOUIS GAY-LUSSAC
               MEMOIRES DE LA SOCIETE D'ARCUEIL, 2, 207 (1808)
 Job cpu time:  0 days  0 hours 40 minutes 56.5 seconds.
 File lengths (MBytes):  RWF=     47 Int=      0 D2E=      0 Chk=      2 Scr=      1
 Normal termination of Gaussian 09 at Tue Jul 16 13:25:07 2019.
